 VARIABLES = "X", "Y", "Z"
 ZONE F=FEPOINT, ET=BRICK, N=         759 E=         560
   3.0000000000000000        1.2966852216116180        1.4350800891120363     
   3.0000000000000000        1.2805709222480282        1.2553059756478449     
   3.0000000000000000        1.2686868148647477        1.0000000539214968     
   3.0000000000000000        1.2805709222487196       0.74469408776032964     
   3.0000000000000000        1.2966852216126434       0.56491992345273956     
   3.0000000000000000        1.5649199697687073        1.7033148314993838     
   3.0000000000000000        1.4799568575747664        1.5200432116610207     
   3.0000000000000000        1.5062752758844800        1.2494272559575981     
   3.0000000000000000        1.5078299809132654        1.0000000148488692     
   3.0000000000000000        1.5062752758893496       0.75057276582815879     
   3.0000000000000000        1.4799568575852615       0.47995679567101179     
   3.0000000000000000        1.5649199697831233       0.29668516943896583     
   3.0000000000000000        1.7446940698709690        1.7194290923131208     
   3.0000000000000000        1.7505727715527786        1.4937247424087763     
   3.0000000000000000        1.7490872008218079        1.2509128107148757     
   3.0000000000000000        1.7508022070698057        1.0000000031930032     
   3.0000000000000000        1.7490872008555185       0.74908719431731496     
   3.0000000000000000        1.7505727716173014       0.50627525999532064     
   3.0000000000000000        1.7446940699616436       0.28057090832979792     
   3.0000000000000000        2.0000000012085515        1.7313131893826985     
   3.0000000000000000        2.0000000016345432        1.4921700245882881     
   3.0000000000000000        2.0000000011577552        1.2491977967211454     
   3.0000000000000000        2.0000000008503469        1.0000000005878693     
   3.0000000000000000        2.0000000013578885       0.75080220434485279     
   3.0000000000000000        2.0000000019811481       0.50782997619633174     
   3.0000000000000000        2.0000000015583717       0.26868681102936665     
   3.0000000000000000        2.2553059368941892        1.7194290855253436     
   3.0000000000000000        2.2494272367063668        1.4937247335759816     
   3.0000000000000000        2.2509128038723190        1.2509128045336055     
   3.0000000000000000        2.2491977954501818        1.0000000005504988     
   3.0000000000000000        2.2509128046834954       0.74908719688142456     
   3.0000000000000000        2.2494272382910174       0.50627526826179858     
   3.0000000000000000        2.2553059382574889       0.28057091585724248     
   3.0000000000000000        2.4350800552944389        1.7033148060269498     
   3.0000000000000000        2.5200431736953242        1.5200431771487533     
   3.0000000000000000        2.4937247324515046        1.2494272383372451     
   3.0000000000000000        2.4921700227280077        1.0000000017050650     
   3.0000000000000000        2.4937247339765021       0.75057276530707873     
   3.0000000000000000        2.5200431797934018       0.47995682963536435     
   3.0000000000000000        2.4350800601972029       0.29668519895348666     
   3.0000000000000000        2.7033148034752266        1.4350800583677576     
   3.0000000000000000        2.7194290846627704        1.2553059404041498     
   3.0000000000000000        2.7313131879975243        1.0000000052666329     
   3.0000000000000000        2.7194290859360879       0.74469406683185668     
   3.0000000000000000        2.7033148083646008       0.56491994769541543     
   3.0000000000000000        1.2928934003334511        1.7071069627064994     
   3.0000000000000000        1.1586689296021300        1.5405201476200254     
   3.0000000000000000        1.0503269295307829        1.3132428119296107     
   3.0000000000000000        1.0000000000000329        1.0000002567080115     
   3.0000000000000000        1.0503269295307833       0.68675718807038799     
   3.0000000000000000        1.1586689296021302       0.45947985237997413     
   3.0000000000000000        1.2928934003334511       0.29289303729350036     
   3.0000000000000000        1.4594798523799746       0.15866892960212986     
   3.0000000000000000        1.6867571880703893        5.0326929530782882E-002
   3.0000000000000000        2.0000000000000000        0.0000000000000000     
   3.0000000000000000        2.3132428119296109        5.0326929530782993E-002
   3.0000000000000000        2.5405201476200254       0.15866892960212997     
   3.0000000000000000        2.7071068063349077       0.29289324396181382     
   3.0000000000000000        2.8413310703978700       0.45947985237997435     
   3.0000000000000000        2.9496730704692169       0.68675718807038910     
   3.0000000000000000        2.9999999999999996        1.0000000238618088     
   3.0000000000000000        2.9496730704692169        1.3132428119296109     
   3.0000000000000000        2.8413310703978696        1.5405201476200263     
   3.0000000000000000        2.7071067725892153        1.7071067897838794     
   3.0000000000000000        2.5405201476200263        1.8413310703978696     
   3.0000000000000000        2.3132428119296113        1.9496730704692169     
   3.0000000000000000        1.9999999995448816        2.0000000000000000     
   3.0000000000000000        1.6867571880703884        1.9496730704692169     
   3.0000000000000000        1.4594798523799741        1.8413310703978698     
   3.7999999999999998        1.1384393964742321        1.5329731091622445     
   3.7999999999999998        1.1186993797538345        1.3127498201686099     
   3.7999999999999998        1.1041413482093159        1.0000000660538335     
   3.7999999999999998        1.1186993797546816       0.68725025750640389     
   3.7999999999999998        1.1384393964754884       0.46702690622960596     
   3.7999999999999998        1.4670269629666666        1.8615606685867450     
   3.7999999999999998        1.3629471505290889        1.6370529342847502     
   3.7999999999999998        1.3951872129584881        1.3055483885480577     
   3.7999999999999998        1.3970917266187501        1.0000000181898647     
   3.7999999999999998        1.3951872129644534       0.69445163813949451     
   3.7999999999999998        1.3629471505419455       0.36294707469698950     
   3.7999999999999998        1.4670269629843262       0.13843933256273322     
   3.7999999999999998        1.6872502355919370        1.8813006380835728     
   3.7999999999999998        1.6944516451521539        1.6048128094507508     
   3.7999999999999998        1.6926318210067146        1.3073681931257228     
   3.7999999999999998        1.6947327036605120        1.0000000039114290     
   3.7999999999999998        1.6926318210480102       0.69263181303871080     
   3.7999999999999998        1.6944516452311942       0.39518719349426790     
   3.7999999999999998        1.6872502357030135       0.11869936270400250     
   3.7999999999999998        2.0000000014804757        1.8958586569938056     
   3.7999999999999998        2.0000000020023152        1.6029082801206527     
   3.7999999999999998        2.0000000014182500        1.3052673009834030     
   3.7999999999999998        2.0000000010416747        1.0000000007201399     
   3.7999999999999998        2.0000000016634134       0.69473270032244472     
   3.7999999999999998        2.0000000024269067       0.39709172084050648     
   3.7999999999999998        2.0000000019090054       0.10414134351097426     
   3.7999999999999998        2.3127497726953816        1.8813006297685457     
   3.7999999999999998        2.3055483649652992        1.6048127986305774     
   3.7999999999999998        2.3073681847435905        1.3073681855536667     
   3.7999999999999998        2.3052672994264727        1.0000000006743610     
   3.7999999999999998        2.3073681857372819       0.69263181617974512     
   3.7999999999999998        2.3055483669064962       0.39518720362070336     
   3.7999999999999998        2.3127497743654239       0.11869937192512214     
   3.7999999999999998        2.5329730677356874        1.8615606373830134     
   3.7999999999999998        2.6370528877767718        1.6370528920072227     
   3.7999999999999998        2.6048127972530932        1.3055483669631252     
   3.7999999999999998        2.6029082778418093        1.0000000020887045     
   3.7999999999999998        2.6048127991212149       0.69445163750117145     
   3.7999999999999998        2.6370528952469172       0.36294711630332144     
   3.7999999999999998        2.5329730737415734       0.13843936871802121     
   3.7999999999999998        2.8615606342571525        1.5329730715005030     
   3.7999999999999998        2.8813006287118936        1.3127497769950836     
   3.7999999999999998        2.8958586552969674        1.0000000064516252     
   3.7999999999999998        2.8813006302717077       0.68725023186902445     
   3.7999999999999998        2.8615606402466360       0.46702693592688393     
   3.7999999999999998        1.1337944154084778        1.8662060293154616     
   3.7999999999999998       0.96936943876260928        1.6621371808345311     
   3.7999999999999998       0.83665048867520908        1.3837224446137730     
   3.7999999999999998       0.77500000000004032        1.0000003144673142     
   3.7999999999999998       0.83665048867520975       0.61627755538622531     
   3.7999999999999998       0.96936943876260950       0.33786281916546834     
   3.7999999999999998        1.1337944154084778       0.13379397068453802     
   3.7999999999999998        1.3378628191654689       -3.0630561237390719E-002
   3.7999999999999998        1.6162775553862270      -0.16334951132479092     
   3.7999999999999998        2.0000000000000000      -0.22499999999999987     
   3.7999999999999998        2.3837224446137735      -0.16334951132479070     
   3.7999999999999998        2.6621371808345309       -3.0630561237390719E-002
   3.7999999999999998        2.8662058377602619       0.13379422385322204     
   3.7999999999999998        3.0306305612373907       0.33786281916546868     
   3.7999999999999998        3.1633495113247907       0.61627755538622675     
   3.7999999999999998        3.2249999999999996        1.0000000292307156     
   3.7999999999999998        3.1633495113247907        1.3837224446137733     
   3.7999999999999998        3.0306305612373903        1.6621371808345322     
   3.7999999999999998        2.8662057964217889        1.8662058174852523     
   3.7999999999999998        2.6621371808345322        2.0306305612373903     
   3.7999999999999998        2.3837224446137739        2.1633495113247907     
   3.7999999999999998        1.9999999994424800        2.2249999999999996     
   3.7999999999999998        1.6162775553862259        2.1633495113247907     
   3.7999999999999998        1.3378628191654682        2.0306305612373903     
   4.5999999999999996        1.0153593102562652        1.6091121247568507     
   4.5999999999999996       0.99279929114723942        1.3574283659069828     
   4.5999999999999996       0.97616154081064677        1.0000000754900955     
   4.5999999999999996       0.99279929114820753       0.64257172286446151     
   4.5999999999999996        1.0153593102577010       0.39088789283383540     
   4.5999999999999996        1.3908879576761901        1.9846407640991373     
   4.5999999999999996        1.2719396006046728        1.7280604963254289     
   4.5999999999999996        1.3087853862382719        1.3491981583406374     
   4.5999999999999996        1.3109619732785716        1.0000000207884170     
   4.5999999999999996        1.3087853862450896       0.65080187215942231     
   4.5999999999999996        1.2719396006193662       0.27193951393941651     
   4.5999999999999996        1.3908879576963726        1.5359237214552235E-002
   4.5999999999999996        1.6425716978193565        2.0072007292383693     
   4.5999999999999996        1.6508018801738900        1.6912146393722867     
   4.5999999999999996        1.6487220811505310        1.3512779350008259     
   4.5999999999999996        1.6511230898977280        1.0000000044702044     
   4.5999999999999996        1.6487220811977259       0.64872207204424104     
   4.5999999999999996        1.6508018802642219       0.30878536399344891     
   4.5999999999999996        1.6425716979463010       -7.2007283382828913E-003
   4.5999999999999996        2.0000000016919719        2.0238384651357779     
   4.5999999999999996        2.0000000022883606        1.6890380344236031     
   4.5999999999999996        2.0000000016208572        1.3488769154096034     
   4.5999999999999996        2.0000000011904855        1.0000000008230170     
   4.5999999999999996        2.0000000019010438       0.65112308608279390     
   4.5999999999999996        2.0000000027736076       0.31096196667486453     
   4.5999999999999996        2.0000000021817201       -2.3838464558886718E-002
   4.5999999999999996        2.3574283116518648        2.0072007197354811     
   4.5999999999999996        2.3491981313889134        1.6912146270063741     
   4.5999999999999996        2.3512779254212464        1.3512779263470478     
   4.5999999999999996        2.3488769136302547        1.0000000007706982     
   4.5999999999999996        2.3512779265568935       0.64872207563399442     
   4.5999999999999996        2.3491981336074241       0.30878537556651808     
   4.5999999999999996        2.3574283135604843       -7.2007177998605343E-003
   4.5999999999999996        2.6091120774122145        1.9846407284377299     
   4.5999999999999996        2.7280604431734536        1.7280604480082546     
   4.5999999999999996        2.6912146254321065        1.3491981336721430     
   4.5999999999999996        2.6890380318192109        1.0000000023870910     
   4.5999999999999996        2.6912146275671027       0.65080187142991019     
   4.5999999999999996        2.7280604517107623       0.27193956148951015     
   4.5999999999999996        2.6091120842760840        1.5359278534881393E-002
   4.5999999999999996        2.9846407248653173        1.6091120817148608     
   4.5999999999999996        3.0072007185278786        1.3574283165658096     
   4.5999999999999996        3.0238384631965340        1.0000000073732860     
   4.5999999999999996        3.0072007203105233       0.64257169356459931     
   4.5999999999999996        2.9846407317104413       0.39088792677358164     
   4.5999999999999996        1.0100507604668316        1.9899497477890993     
   4.5999999999999996       0.82213650144298200        1.7567282066680354     
   4.5999999999999996       0.67045770134309612        1.4385399367014549     
   4.5999999999999996       0.60000000000004605        1.0000003593912161     
   4.5999999999999996       0.67045770134309679       0.56146006329854314     
   4.5999999999999996       0.82213650144298245       0.24327179333196380     
   4.5999999999999996        1.0100507604668316        1.0050252210900612E-002
   4.5999999999999996        1.2432717933319646      -0.17786349855701822     
   4.5999999999999996        1.5614600632985451      -0.32954229865690388     
   4.5999999999999996        2.0000000000000000      -0.39999999999999991     
   4.5999999999999996        2.4385399367014551      -0.32954229865690365     
   4.5999999999999996        2.7567282066680354      -0.17786349855701800     
   4.5999999999999996        2.9899495288688707        1.0050541546539393E-002
   4.5999999999999996        3.1778634985570182       0.24327179333196414     
   4.5999999999999996        3.3295422986569037       0.56146006329854470     
   4.5999999999999996        3.3999999999999995        1.0000000334065322     
   4.5999999999999996        3.3295422986569037        1.4385399367014553     
   4.5999999999999996        3.1778634985570173        1.7567282066680368     
   4.5999999999999996        2.9899494816249015        1.9899495056974312     
   4.5999999999999996        2.7567282066680368        2.1778634985570173     
   4.5999999999999996        2.4385399367014560        2.3295422986569037     
   4.5999999999999996        1.9999999993628343        2.3999999999999999     
   4.5999999999999996        1.5614600632985438        2.3295422986569037     
   4.5999999999999996        1.2432717933319637        2.1778634985570173     
   5.4000000000000004       0.92744496295771750        1.6634971358958555     
   5.4000000000000004       0.90287065642824293        1.3893416128629634     
   5.4000000000000004       0.88474739266874014        1.0000000822302826     
   5.4000000000000004       0.90287065642929742       0.61065848383450272     
   5.4000000000000004       0.92744496295928136       0.33650288326542788     
   5.4000000000000004        1.3365029538972788        2.0725551180365605     
   5.4000000000000004        1.2069342078015186        1.7930658977830567     
   5.4000000000000004        1.2470697957238319        1.3803765653353370     
   5.4000000000000004        1.2494407208927298        1.0000000226445256     
   5.4000000000000004        1.2470697957312582       0.61962346788794220     
   5.4000000000000004        1.2069342078175240       0.20693411339829304     
   5.4000000000000004        1.3365029539192630       -7.2555116605577119E-002
   5.4000000000000004        1.6106584565532276        2.0971293657775094     
   5.4000000000000004        1.6196234766179873        1.7529302321733837     
   5.4000000000000004        1.6173579812532570        1.3826420363401855     
   5.4000000000000004        1.6199733657814537        1.0000000048693298     
   5.4000000000000004        1.6173579813046657       0.61735797133390535     
   5.4000000000000004        1.6196234767163846       0.24706977149286402     
   5.4000000000000004        1.6106584566915063       -9.7129364797058138E-002
   5.4000000000000004        2.0000000018430408        2.1152526138086154     
   5.4000000000000004        2.0000000024926785        1.7505592874971394     
   5.4000000000000004        2.0000000017655766        1.3800266399997467     
   5.4000000000000004        2.0000000012967791        1.0000000008965007     
   5.4000000000000004        2.0000000020707800       0.61997336162590044     
   5.4000000000000004        2.0000000030212508       0.24944071369940590     
   5.4000000000000004        2.0000000023765168      -0.11525261318021585     
   5.4000000000000004        2.3893415537636384        2.0971293554261488     
   5.4000000000000004        2.3803765359772093        1.7529302187033720     
   5.4000000000000004        2.3826420259052865        1.3826420269137485     
   5.4000000000000004        2.3800266380615271        1.0000000008395107     
   5.4000000000000004        2.3826420271423303       0.61735797524417246     
   5.4000000000000004        2.3803765383938016       0.24706978409924285     
   5.4000000000000004        2.3893415558426705       -9.7129353317705114E-002
   5.4000000000000004        2.6634970843240193        2.0725550791910985     
   5.4000000000000004        2.7930658398853692        1.7930658451518486     
   5.4000000000000004        2.7529302169885446        1.3803765384642988     
   5.4000000000000004        2.7505592846602118        1.0000000026002240     
   5.4000000000000004        2.7529302193141656       0.61962346709329508     
   5.4000000000000004        2.7930658491849378       0.20693416519393071     
   5.4000000000000004        2.6634970918007346       -7.2555071595932885E-002
   5.4000000000000004        3.0725550752997206        1.6634970890108303     
   5.4000000000000004        3.0971293541107245        1.3893415591163283     
   5.4000000000000004        3.1152526116962242        1.0000000080316152     
   5.4000000000000004        3.0971293560525339       0.61065845191858148     
   5.4000000000000004        3.0725550827560162       0.33650292023550854     
   5.4000000000000004       0.92166243550851301        2.0783381181274114     
   5.4000000000000004       0.71697011764324836        1.8242932251205386     
   5.4000000000000004       0.55174856753444401        1.4776952881926562     
   5.4000000000000004       0.47500000000005027        1.0000003914797175     
   5.4000000000000004       0.55174856753444468       0.52230471180734173     
   5.4000000000000004       0.71697011764324858       0.17570677487946063     
   5.4000000000000004       0.92166243550851301       -7.8338118127411871E-002
   5.4000000000000004        1.1757067748794614      -0.28302988235675186     
   5.4000000000000004        1.5223047118073438      -0.44825143246555599     
   5.4000000000000004        2.0000000000000000      -0.52499999999999991     
   5.4000000000000004        2.4776952881926566      -0.44825143246555577     
   5.4000000000000004        2.8242932251205386      -0.28302988235675164     
   5.4000000000000004        3.0783378796607344       -7.8337802958233782E-002
   5.4000000000000004        3.2830298823567516       0.17570677487946096     
   5.4000000000000004        3.4482514324655558       0.52230471180734339     
   5.4000000000000004        3.5249999999999995        1.0000000363892583     
   5.4000000000000004        3.4482514324655558        1.4776952881926566     
   5.4000000000000004        3.2830298823567512        1.8242932251205399     
   5.4000000000000004        3.0783378281985532        2.0783378544204161     
   5.4000000000000004        2.8242932251205399        2.2830298823567512     
   5.4000000000000004        2.4776952881926571        2.4482514324655558     
   5.4000000000000004        1.9999999993059445        2.5249999999999999     
   5.4000000000000004        1.5223047118073425        2.4482514324655558     
   5.4000000000000004        1.1757067748794605        2.2830298823567512     
   6.2000000000000002       0.87469635457858885        1.6961281425792580     
   6.2000000000000002       0.84891347559684505        1.4084895610365518     
   6.2000000000000002       0.82989890378359621        1.0000000862743950     
   6.2000000000000002       0.84891347559795127       0.59151054041652740     
   6.2000000000000002       0.87469635458022954       0.30387187752438327     
   6.2000000000000002        1.3038719516299317        2.1253037303990139     
   6.2000000000000002        1.1679309721196263        1.8320691386576331     
   6.2000000000000002        1.2100404414151678        1.3990836095321568     
   6.2000000000000002        1.2125279694612245        1.0000000237581907     
   6.2000000000000002        1.2100404414229593       0.60091642532505407     
   6.2000000000000002        1.1679309721364184       0.16793087307361887     
   6.2000000000000002        1.3038719516529973      -0.12530372889765462     
   6.2000000000000002        1.5915105117935504        2.1510865477009933     
   6.2000000000000002        1.6009164344844458        1.7899595878540420     
   6.2000000000000002        1.5985395213148927        1.4014604971438012     
   6.2000000000000002        1.6012835313116891        1.0000000051088052     
   6.2000000000000002        1.5985395213688296       0.59853951090770385     
   6.2000000000000002        1.6009164345876823       0.21004041599251300     
   6.2000000000000002        1.5915105119386297      -0.15108654667232346     
   6.2000000000000002        2.0000000019336825        2.1701011030123176     
   6.2000000000000002        2.0000000026152689        1.7874720393412611     
   6.2000000000000002        2.0000000018524084        1.3987164747538325     
   6.2000000000000002        2.0000000013605552        1.0000000009405909     
   6.2000000000000002        2.0000000021726216       0.60128352695176446     
   6.2000000000000002        2.0000000031698368       0.21252796191413070     
   6.2000000000000002        2.0000000024933948      -0.17010110235301346     
   6.2000000000000002        2.4084894990307029        2.1510865368405501     
   6.2000000000000002        2.3990835787301870        1.7899595737215706     
   6.2000000000000002        2.4014604861957105        1.4014604872537688     
   6.2000000000000002        2.3987164727202908        1.0000000008807981     
   6.2000000000000002        2.4014604874935928       0.59853951501027924     
   6.2000000000000002        2.3990835812656277       0.21004042921887767     
   6.2000000000000002        2.4084895012119825      -0.15108653462841204     
   6.2000000000000002        2.6961280884711023        2.1253036896431201     
   6.2000000000000002        2.8320690779125188        1.8320690834380051     
   6.2000000000000002        2.7899595719224073        1.3990835813395921     
   6.2000000000000002        2.7874720363648122        1.0000000027281040     
   6.2000000000000002        2.7899595743624035       0.60091642449132587     
   6.2000000000000002        2.8320690876694430       0.16793092741658289     
   6.2000000000000002        2.6961280963155247      -0.12530368167442130     
   6.2000000000000002        3.1253036855603629        1.6961280933884124     
   6.2000000000000002        3.1510865354604327        1.4084895046466397     
   6.2000000000000002        3.1701011007960389        1.0000000084266127     
   6.2000000000000002        3.1510865374977408       0.59151050693097074     
   6.2000000000000002        3.1253036933833611       0.30387191631266464     
   6.2000000000000002       0.86862944053352176        2.1313711403303994     
   6.2000000000000002       0.65387028736340791        1.8648322361920409     
   6.2000000000000002       0.48052308724925252        1.5011884990873772     
   6.2000000000000002       0.40000000000005254        1.0000004107328184     
   6.2000000000000002       0.48052308724925319       0.49881150091262072     
   6.2000000000000002       0.65387028736340813       0.13516776380795859     
   6.2000000000000002       0.86862944053352176      -0.13137114033039943     
   6.2000000000000002        1.1351677638079591      -0.34612971263659231     
   6.2000000000000002        1.4988115009126228      -0.51947691275074748     
   6.2000000000000002        2.0000000000000000      -0.60000000000000009     
   6.2000000000000002        2.5011884990873776      -0.51947691275074726     
   6.2000000000000002        2.8648322361920409      -0.34612971263659209     
   6.2000000000000002        3.1313708901358526      -0.13137080966109793     
   6.2000000000000002        3.3461297126365919       0.13516776380795892     
   6.2000000000000002        3.5194769127507470       0.49881150091262250     
   6.2000000000000002        3.5999999999999996        1.0000000381788940     
   6.2000000000000002        3.5194769127507470        1.5011884990873776     
   6.2000000000000002        3.3461297126365914        1.8648322361920422     
   6.2000000000000002        3.1313708361427448        2.1313708636542072     
   6.2000000000000002        2.8648322361920422        2.3461297126365914     
   6.2000000000000002        2.5011884990873781        2.5194769127507470     
   6.2000000000000002        1.9999999992718105        2.6000000000000001     
   6.2000000000000002        1.4988115009126215        2.5194769127507470     
   6.2000000000000002        1.1351677638079587        2.3461297126365919     
   7.0000000000000000       0.85711348511887930        1.7070051448070589     
   7.0000000000000000       0.83092774865304575        1.4148722104277480     
   7.0000000000000000       0.81161607415521497        1.0000000876224324     
   7.0000000000000000       0.83092774865416930       0.58512789261053566     
   7.0000000000000000       0.85711348512054553       0.29299487561070181     
   7.0000000000000000        1.2929949508741494        2.1428866011864987     
   7.0000000000000000        1.1549298935589953        1.8450702189491586     
   7.0000000000000000        1.1976973233122798        1.4053192909310970     
   7.0000000000000000        1.2002237189840561        1.0000000241294125     
   7.0000000000000000        1.1976973233201931       0.59468074447075803     
   7.0000000000000000        1.1549298935760499       0.15492979296539411     
   7.0000000000000000        1.2929949508975753      -0.14288659966168060     
   7.0000000000000000        1.5851278635403245        2.1690722750088214     
   7.0000000000000000        1.5946807537732652        1.8023027064142614     
   7.0000000000000000        1.5922667013354379        1.4077333174116731     
   7.0000000000000000        1.5950535864884343        1.0000000051886302     
   7.0000000000000000        1.5922667013902174       0.59226669076563687     
   7.0000000000000000        1.5946807538781149       0.19769729749239606     
   7.0000000000000000        1.5851278636876707      -0.16907227396407842     
   7.0000000000000000        2.0000000019638962        2.1883839327468850     
   7.0000000000000000        2.0000000026561326        1.7997762899559682     
   7.0000000000000000        2.0000000018813524        1.4049464196718613     
   7.0000000000000000        2.0000000013818138        1.0000000009552876     
   7.0000000000000000        2.0000000022065687       0.59505358206038572     
   7.0000000000000000        2.0000000032193657       0.20022371131903904     
   7.0000000000000000        2.0000000025323539      -0.18838393207727910     
   7.0000000000000000        2.4148721474530577        2.1690722639786832     
   7.0000000000000000        2.4053192596478459        1.8023026920609699     
   7.0000000000000000        2.4077333062925184        1.4077333073671090     
   7.0000000000000000        2.4049464176065456        1.0000000008945604     
   7.0000000000000000        2.4077333076106799       0.59226669493231487     
   7.0000000000000000        2.4053192622229034       0.19769731092542275     
   7.0000000000000000        2.4148721496684193      -0.16907226173198087     