 VARIABLES = "X", "Y", "Z"
 ZONE F=FEPOINT, ET=QUADRILATERAL, N=        1710 E=        1505
  -90.593037185678199        46.746168360535940        0.0000000000000000     
  -87.250288770822621        46.684922840145177        0.0000000000000000     
  -87.131960444092840        46.689424918094076        0.0000000000000000     
  -86.950711981825975        46.685066653747043        0.0000000000000000     
  -86.744359042621895        46.684957634883681        0.0000000000000000     
  -86.537411291295285        46.696202228950497        0.0000000000000000     
  -86.346831584297206        46.706900920201349        0.0000000000000000     
  -86.212260746142221        46.702678601014107        0.0000000000000000     
  -85.220045501454337        46.724405996158282        0.0000000000000000     
  -85.133529890861297        46.717724126332129        0.0000000000000000     
  -84.932459683417363        46.658754218045573        0.0000000000000000     
  -84.744476132737688        46.685485788457370        0.0000000000000000     
  -84.575890153224847        46.706182215723210        0.0000000000000000     
  -91.747273478193762        46.867950737579243        0.0000000000000000     
  -91.538263125251902        46.871060881605509        0.0000000000000000     
  -91.348482972583483        46.888085465062765        0.0000000000000000     
  -90.749555536667017        46.843368348329015        0.0000000000000000     
  -90.527534468673508        46.831827160619127        0.0000000000000000     
  -90.336874640903901        46.873325072048836        0.0000000000000000     
  -90.139394692351061        46.901440643661793        0.0000000000000000     
  -89.945397861840490        46.925790849826257        0.0000000000000000     
  -89.764989525601237        46.942331197940504        0.0000000000000000     
  -89.639580655859461        46.942866428637686        0.0000000000000000     
  -87.689334800929018        46.879899481741340        0.0000000000000000     
  -87.555678301040899        46.898008061400716        0.0000000000000000     
  -87.338298765011444        46.824574685359295        0.0000000000000000     
  -87.134356237189806        46.866798390076092        0.0000000000000000     
  -86.943347858075242        46.875677315768023        0.0000000000000000     
  -86.743978574106336        46.879368872755414        0.0000000000000000     
  -86.541504177717272        46.881300755543400        0.0000000000000000     
  -86.340353189034403        46.873253398369648        0.0000000000000000     
  -86.112806438830646        46.820882262061943        0.0000000000000000     
  -85.879092189639465        46.849969488872212        0.0000000000000000     
  -85.684284050551256        46.859141242717300        0.0000000000000000     
  -85.502755102224455        46.856972170116236        0.0000000000000000     
  -85.305324135932921        46.832101685002669        0.0000000000000000     
  -85.108209331482513        46.860919442071243        0.0000000000000000     
  -84.965445314575334        46.902676286420252        0.0000000000000000     
  -84.763064768573742        46.892148735238301        0.0000000000000000     
  -84.602724986312808        46.870994672630076        0.0000000000000000     
  -91.542770374130711        47.031724983120725        0.0000000000000000     
  -91.369086320120047        47.086978819608021        0.0000000000000000     
  -91.151310041425688        47.072236229670679        0.0000000000000000     
  -90.958090630570155        47.077379921637501        0.0000000000000000     
  -90.750020404397105        47.080296644054741        0.0000000000000000     
  -90.577823798431396        47.036512277067033        0.0000000000000000     
  -90.353724505004365        47.067305740532014        0.0000000000000000     
  -90.149702757777234        47.086769229948892        0.0000000000000000     
  -89.952326675430442        47.098294320922612        0.0000000000000000     
  -89.760731026461784        47.097759944007620        0.0000000000000000     
  -89.551622473080712        47.057160919356789        0.0000000000000000     
  -89.345232720792879        47.091480096653285        0.0000000000000000     
  -89.215892966389760        47.096791139082178        0.0000000000000000     
  -88.154934682204996        47.009428475419860        0.0000000000000000     
  -87.970225869288370        47.039201434232680        0.0000000000000000     
  -87.744379013652448        47.065207059135510        0.0000000000000000     
  -87.521369924436712        47.068456249803994        0.0000000000000000     
  -87.344546046297950        47.060538692623673        0.0000000000000000     
  -87.144444165626965        47.062243331920214        0.0000000000000000     
  -86.945196372959543        47.069401067300369        0.0000000000000000     
  -86.744509818009632        47.073494485056528        0.0000000000000000     
  -86.539813077766112        47.074963246142794        0.0000000000000000     
  -86.331459158750917        47.066969061168578        0.0000000000000000     
  -86.121668339012146        47.056853452555217        0.0000000000000000     
  -85.914312165206837        47.057794680731256        0.0000000000000000     
  -85.714832311706559        47.061713433300028        0.0000000000000000     
  -85.521932538584551        47.060690186083541        0.0000000000000000     
  -85.330826878213600        47.060427633607830        0.0000000000000000     
  -85.141150713098853        47.072880941679202        0.0000000000000000     
  -84.944185548739426        47.076321505777905        0.0000000000000000     
  -84.805593189398579        47.139323130816813        0.0000000000000000     
  -91.163525421472997        47.255962331996443        0.0000000000000000     
  -90.944862206015856        47.268144086049176        0.0000000000000000     
  -90.794069332662389        47.258054813274946        0.0000000000000000     
  -90.570982191816100        47.259864405903642        0.0000000000000000     
  -90.362755898967649        47.272377120447707        0.0000000000000000     
  -90.154584786786771        47.279940291372775        0.0000000000000000     
  -89.952863032318803        47.281532560519587        0.0000000000000000     
  -89.752686991540102        47.279497245480115        0.0000000000000000     
  -89.548553005401061        47.275768916455419        0.0000000000000000     
  -89.346464576993355        47.269152243209547        0.0000000000000000     
  -89.131382190692548        47.229231357087116        0.0000000000000000     
  -88.923830636481895        47.286126692224755        0.0000000000000000     
  -88.755797517794264        47.320160910885825        0.0000000000000000     
  -88.640664558760520        47.334164411151690        0.0000000000000000     
  -87.977375848047473        47.272423889968920        0.0000000000000000     
  -87.752165311245491        47.276469219446263        0.0000000000000000     
  -87.580771921526150        47.264879953319060        0.0000000000000000     
  -87.350767926281193        47.261942652460135        0.0000000000000000     
  -87.149283186511525        47.263257504647825        0.0000000000000000     
  -86.948354136277061        47.266774281253483        0.0000000000000000     
  -86.746400889217668        47.270431695738765        0.0000000000000000     
  -86.541885051734795        47.274437986743990        0.0000000000000000     
  -86.318822847948937        47.289188064845668        0.0000000000000000     
  -86.129582673832942        47.243212013114700        0.0000000000000000     
  -85.934744698222360        47.295886923619598        0.0000000000000000     
  -85.734032302209897        47.244422717036031        0.0000000000000000     
  -85.542898306640225        47.296580744978186        0.0000000000000000     
  -85.349259431773348        47.245222531465195        0.0000000000000000     
  -85.174918869784605        47.294886872014878        0.0000000000000000     
  -84.953477938109927        47.317610429045452        0.0000000000000000     
  -84.823872230886053        47.254809134570216        0.0000000000000000     
  -90.916703721869936        47.426589379303145        0.0000000000000000     
  -90.747009961257149        47.428072481282918        0.0000000000000000     
  -90.583178702209878        47.452201480179639        0.0000000000000000     
  -90.367833531534757        47.505622302547657        0.0000000000000000     
  -90.150006178343375        47.471025140293378        0.0000000000000000     
  -89.951824619394145        47.470733253531897        0.0000000000000000     
  -89.752088101705482        47.473921372598468        0.0000000000000000     
  -89.548853407788329        47.478156720875567        0.0000000000000000     
  -89.326063636022141        47.485226728239354        0.0000000000000000     
  -89.139369138721761        47.439464565162055        0.0000000000000000     
  -88.950421296448880        47.499996225214709        0.0000000000000000     
  -88.764565138881380        47.454042486427333        0.0000000000000000     
  -88.579926403342839        47.458289797177038        0.0000000000000000     
  -88.389690415231570        47.479349855475540        0.0000000000000000     
  -88.157034055333057        47.497607303476364        0.0000000000000000     
  -87.944421341805608        47.465777033796876        0.0000000000000000     
  -87.760982535566825        47.452455904965682        0.0000000000000000     
  -87.530916020757090        47.456209286350713        0.0000000000000000     
  -87.353827634137929        47.458403511149506        0.0000000000000000     
  -87.152754432933079        47.462187818675005        0.0000000000000000     
  -86.951203005821228        47.465524643221670        0.0000000000000000     
  -86.749010649115064        47.468772736312999        0.0000000000000000     
  -86.546062378013929        47.472469671789014        0.0000000000000000     
  -86.366574258110603        47.474945387417215        0.0000000000000000     
  -86.134294337275037        47.479532069624113        0.0000000000000000     
  -85.945560866623708        47.472423966599401        0.0000000000000000     
  -85.749388430572026        47.482309567189269        0.0000000000000000     
  -85.552242305261146        47.472407366711522        0.0000000000000000     
  -85.365436472494238        47.479116640471162        0.0000000000000000     
  -85.143224574964279        47.461892262782030        0.0000000000000000     
  -85.016943204729856        47.491024503088568        0.0000000000000000     
  -90.282290502880343        47.633578059337069        0.0000000000000000     
  -90.152841154944070        47.639835205340596        0.0000000000000000     
  -89.948789854864188        47.677359696754365        0.0000000000000000     
  -89.754972480684259        47.648446100875816        0.0000000000000000     
  -89.558942991056014        47.705978768244954        0.0000000000000000     
  -89.361734727422245        47.665500247483521        0.0000000000000000     
  -89.151994365731682        47.679568460050234        0.0000000000000000     
  -88.965008213018763        47.664406527094194        0.0000000000000000     
  -88.756868896357204        47.660695579834019        0.0000000000000000     
  -88.542079557499463        47.618922689802567        0.0000000000000000     
  -88.282171912532149        47.744287746781772        0.0000000000000000     
  -88.157152990681553        47.701522273036325        0.0000000000000000     
  -87.952854565940200        47.679073501991745        0.0000000000000000     
  -87.739477106383390        47.681626354671494        0.0000000000000000     
  -87.574694769146376        47.638220663234570        0.0000000000000000     
  -87.358471787478322        47.655686058038050        0.0000000000000000     
  -87.156199701959565        47.661207536273373        0.0000000000000000     
  -86.954333936086186        47.664757252699360        0.0000000000000000     
  -86.752063393749012        47.667766930904001        0.0000000000000000     
  -86.548540915584340        47.670081959367685        0.0000000000000000     
  -86.317612368371613        47.670238893852790        0.0000000000000000     
  -86.144359669458623        47.668432375269965        0.0000000000000000     
  -85.952390149500374        47.666112997834858        0.0000000000000000     
  -85.753381710621966        47.664754267181607        0.0000000000000000     
  -85.553512434468502        47.665609522548642        0.0000000000000000     
  -85.373574025957822        47.667623793492197        0.0000000000000000     
  -85.162476335790117        47.684582303812263        0.0000000000000000     
  -89.758093330617285        47.851992676173566        0.0000000000000000     
  -89.568257302639694        47.879797581704729        0.0000000000000000     
  -89.345070203799253        47.864838345622218        0.0000000000000000     
  -88.959036700095581        47.858696838801748        0.0000000000000000     
  -88.750281900993144        47.878944282885882        0.0000000000000000     
  -88.544708112577453        47.869266200402535        0.0000000000000000     
  -88.340413278056019        47.870861966716596        0.0000000000000000     
  -88.146118153319648        47.885817440247585        0.0000000000000000     
  -87.940884310399596        47.897393264183748        0.0000000000000000     
  -87.779830194511632        47.850292673045686        0.0000000000000000     
  -87.566733563749310        47.856306477256574        0.0000000000000000     
  -87.363536283757256        47.857339512341120        0.0000000000000000     
  -87.160552222173422        47.861001997227611        0.0000000000000000     
  -86.958906635722641        47.864255370302587        0.0000000000000000     
  -86.756800089419272        47.867586662054990        0.0000000000000000     
  -86.552872181969676        47.870628825549169        0.0000000000000000     
  -86.371922238239407        47.871248335863491        0.0000000000000000     
  -86.141716662148241        47.856162602968809        0.0000000000000000     
  -85.954490500963018        47.861172306678583        0.0000000000000000     
  -85.756017717849474        47.872690911412725        0.0000000000000000     
  -85.564238794489214        47.865497907571566        0.0000000000000000     
  -85.383512657080914        47.861642263564775        0.0000000000000000     
  -85.190570320536565        47.858123712192274        0.0000000000000000     
  -89.372684489274548        48.064733154445797        0.0000000000000000     
  -89.191071910049658        48.028585087027238        0.0000000000000000     
  -88.952490969698488        48.094269988354547        0.0000000000000000     
  -88.553392545108963        48.062892251312597        0.0000000000000000     
  -88.355241235330070        48.072246859999311        0.0000000000000000     
  -88.142145973547017        48.073906446780882        0.0000000000000000     
  -87.991666011634365        48.073843696196427        0.0000000000000000     
  -87.770515812983604        48.065364153826536        0.0000000000000000     
  -87.569504997813894        48.060271376387682        0.0000000000000000     
  -87.367583882715820        48.059497020674065        0.0000000000000000     
  -87.166917720733963        48.060222045681684        0.0000000000000000     
  -86.966573475623036        48.063035241857136        0.0000000000000000     
  -86.765302940820476        48.067767634847883        0.0000000000000000     
  -86.561551475752708        48.073350255059914        0.0000000000000000     
  -86.326376141195482        48.080415888817242        0.0000000000000000     
  -86.163905705458291        48.082970211466602        0.0000000000000000     
  -85.949712313435356        48.055381562919877        0.0000000000000000     
  -89.170831851985710        48.246534874335026        0.0000000000000000     
  -88.946026445844282        48.269870679695487        0.0000000000000000     
  -88.758089117130325        48.267664029315732        0.0000000000000000     
  -88.547086172823512        48.261336160436592        0.0000000000000000     
  -88.359410864348632        48.259319504652225        0.0000000000000000     
  -88.161556901357812        48.265625597622794        0.0000000000000000     
  -87.947975931896735        48.267106699917143        0.0000000000000000     
  -87.773589367007830        48.266085010748881        0.0000000000000000     
  -87.573947936743167        48.262857369258860        0.0000000000000000     
  -87.374859306981079        48.258727573533633        0.0000000000000000     
  -87.176957861277089        48.256346968223298        0.0000000000000000     
  -86.979371244067337        48.258422581615825        0.0000000000000000     
  -86.779327597249150        48.267639988080525        0.0000000000000000     
  -86.577006912644137        48.276666079636541        0.0000000000000000     
  -86.396611625366617        48.285233916702481        0.0000000000000000     
  -86.173567432282269        48.281047392607377        0.0000000000000000     
  -88.958425669246481        48.431186717375077        0.0000000000000000     
  -88.545974144424775        48.471439127393580        0.0000000000000000     
  -88.358002785217138        48.457289395888857        0.0000000000000000     
  -88.160611333751916        48.457084211382650        0.0000000000000000     
  -88.006732414451633        48.461324285998785        0.0000000000000000     
  -87.782119224602440        48.469158629585927        0.0000000000000000     
  -87.581998098862641        48.465455751763521        0.0000000000000000     
  -87.385428155226336        48.454685219656007        0.0000000000000000     
  -87.191597980804374        48.446796936912847        0.0000000000000000     
  -86.998261105525003        48.445759080790964        0.0000000000000000     
  -86.805075825237296        48.457407198098124        0.0000000000000000     
  -86.587650758159910        48.508032114366017        0.0000000000000000     
  -86.388210710393537        48.447317083899833        0.0000000000000000     
  -88.158715845287944        48.650402515960678        0.0000000000000000     
  -87.971969134308637        48.641758088831416        0.0000000000000000     
  -87.798274610930008        48.699389321049090        0.0000000000000000     
  -87.585952958298805        48.668308591544481        0.0000000000000000     
  -87.399092096433947        48.646173427717166        0.0000000000000000     
  -87.210892758336527        48.629409377009267        0.0000000000000000     
  -87.020757746223623        48.621337300834099        0.0000000000000000     
  -86.835375897977016        48.624500670459341        0.0000000000000000     
  -86.696748260870649        48.639081403447491        0.0000000000000000     
  -88.120832838504143        48.779415593520056        0.0000000000000000     
  -88.025411297664235        48.773079586104870        0.0000000000000000     
  -87.903060837160240        48.812321362876702        0.0000000000000000     
  -84.883050331940865        46.591955889015082        0.0000000000000000     
  -85.034608483780275        46.690337524989978        0.0000000000000000     
  -84.821142491962206        46.590950381331069        0.0000000000000000     
  -84.733344240776688        46.584136853025328        0.0000000000000000     
  -84.834961130639400        46.681275598270773        0.0000000000000000     
  -84.631828153754995        46.575407316322249        0.0000000000000000     
  -84.551108733432201        46.609271965168276        0.0000000000000000     
  -84.656078229276403        46.691408667700465        0.0000000000000000     
  -84.576047918329706        46.524952855587586        0.0000000000000000     
  -84.539631274780263        46.542815301985939        0.0000000000000000     
  -84.511808706978584        46.556530718204066        0.0000000000000000     
  -84.513797662443253        46.579005022940642        0.0000000000000000     
  -91.842741903799322        46.769980858045749        0.0000000000000000     
  -91.736673978322756        46.785608401292656        0.0000000000000000     
  -91.859115111054379        46.868603957511901        0.0000000000000000     
  -91.893194266184821        46.769244295824791        0.0000000000000000     
  -91.911045815392313        46.769516682506300        0.0000000000000000     
  -91.868966230086471        46.769340979199157        0.0000000000000000     
  -91.780239040020220        46.780403285735453        0.0000000000000000     
  -91.814819610874906        46.773582323102353        0.0000000000000000     
  -91.909192246870163        46.815360367659906        0.0000000000000000     
  -91.847389950361844        46.819046952967952        0.0000000000000000     
  -91.919793520225909        46.784495066411800        0.0000000000000000     
  -91.897947490161812        46.790064838933198        0.0000000000000000     
  -91.926672397535441        46.801408301054259        0.0000000000000000     
  -91.872734265931996        46.792864839034486        0.0000000000000000     
  -91.844713515872769        46.794365101117016        0.0000000000000000     
  -91.877683330801730        46.817064216303081        0.0000000000000000     
  -91.905960188878325        46.835735377659518        0.0000000000000000     
  -91.885301650902377        46.843812188638367        0.0000000000000000     
  -91.852742990188460        46.843394233340646        0.0000000000000000     
  -91.879713826298314        46.861692451215013        0.0000000000000000     
  -91.803212281468262        46.821719895543517        0.0000000000000000     
  -91.743973939016513        46.824822319367584        0.0000000000000000     
  -91.792488520380957        46.866151195431939        0.0000000000000000     
  -91.822023702416672        46.794125870972799        0.0000000000000000     
  -91.829771922983440        46.846120318834430        0.0000000000000000     
  -91.827452844783195        46.866299966616111        0.0000000000000000     
  -91.661325043313710        46.783972390172870        0.0000000000000000     
  -91.643119176779138        46.867440978298859        0.0000000000000000     
  -91.692258870480813        46.786637831741650        0.0000000000000000     
  -91.694599164881780        46.823799123972286        0.0000000000000000     
  -91.639328273802420        46.811417926789403        0.0000000000000000     
  -91.696205141430511        46.868284019518718        0.0000000000000000     
  -91.581685196208937        46.819740542795032        0.0000000000000000     
  -91.531467866935614        46.825515805062693        0.0000000000000000     
  -91.589486986896674        46.868849302330517        0.0000000000000000     
  -91.425135927914241        46.869819416993899        0.0000000000000000     
  -91.484791349925558        46.829762944026250        0.0000000000000000     
  -91.449828633544300        46.829726793126781        0.0000000000000000     
  -91.489314305455878        46.874477077621805        0.0000000000000000     
  -91.291892045351304        46.889104477718249        0.0000000000000000     
  -90.736106714092287        46.787584944688597        0.0000000000000000     
  -90.663644872481541        46.768062734204690        0.0000000000000000     
  -90.658297948467634        46.855631025500351        0.0000000000000000     
  -87.765110464146389        46.881404402504707        0.0000000000000000     
  -85.024461864203332        46.770107231629062        0.0000000000000000     
  -84.948599052678034        46.779373379929162        0.0000000000000000     
  -84.849950079432901        46.785112030436167        0.0000000000000000     
  -84.755863472114896        46.789017585695831        0.0000000000000000     
  -84.856165323766390        46.897706926896227        0.0000000000000000     
  -84.669014702089370        46.792577240038618        0.0000000000000000     
  -84.590002261844404        46.803176164883091        0.0000000000000000     
  -84.669175229910010        46.899001757297071        0.0000000000000000     
  -91.735878593881637        46.950665296008985        0.0000000000000000     
  -91.850846711026833        46.885843534847254        0.0000000000000000     
  -91.797703708564839        46.901440581923403        0.0000000000000000     
  -91.752223156871935        46.918203311271519        0.0000000000000000     
  -91.830230671972274        46.891329253940071        0.0000000000000000     
  -91.654464590170505        46.974192738327737        0.0000000000000000     
  -91.535891579623552        46.970987849464265        0.0000000000000000     
  -91.698833159168686        46.915197612146073        0.0000000000000000     
  -91.647406285483086        46.917926748542556        0.0000000000000000     
  -91.705081077638880        46.957291741637071        0.0000000000000000     
  -91.593110120221382        46.919277014981056        0.0000000000000000     
  -91.538716085615576        46.917914613850257        0.0000000000000000     
  -91.594798880242621        46.969891616912854        0.0000000000000000     
  -91.636935225907237        47.009506943455918        0.0000000000000000     
  -91.600584061263106        47.016871789761808        0.0000000000000000     
  -91.457377194433519        46.956663794415320        0.0000000000000000     
  -91.357759682291999        46.970673868739148        0.0000000000000000     
  -91.468821491128992        47.052508540003650        0.0000000000000000     
  -91.497167012395551        46.912034697711356        0.0000000000000000     
  -91.251071061598509        46.951488979259828        0.0000000000000000     
  -91.142010213683889        46.971709774466518        0.0000000000000000     
  -91.254092039103142        47.071431398912196        0.0000000000000000     
  -91.046631490678578        46.983669869248253        0.0000000000000000     
  -90.956530230709802        46.988811454609348        0.0000000000000000     
  -91.052176053285280        47.076154155865744        0.0000000000000000     
  -90.870069780226245        46.980284231196840        0.0000000000000000     
  -90.771590274431887        46.939801771604522        0.0000000000000000     
  -90.864838370169252        47.079531632818259        0.0000000000000000     
  -90.671030076202641        46.935482189446496        0.0000000000000000     
  -88.348334116787910        46.938955955650705        0.0000000000000000     
  -88.335946902782993        46.915649400064879        0.0000000000000000     
  -88.357209248830287        46.894212851092334        0.0000000000000000     
  -88.335960830554725        46.893491867127558        0.0000000000000000     
  -88.362687204193463        46.910095597591614        0.0000000000000000     
  -88.366714481768781        46.926807121960103        0.0000000000000000     
  -88.250325297700059        46.961909685160443        0.0000000000000000     
  -88.147609132406103        46.962469237709982        0.0000000000000000     
  -88.218062344513655        47.050474517442581        0.0000000000000000     
  -88.293963505574908        46.913417915841585        0.0000000000000000     
  -88.239312122461456        46.922261660892666        0.0000000000000000     
  -88.310672496804784        46.961236760553746        0.0000000000000000     
  -88.313659194232358        46.892547669794183        0.0000000000000000     
  -88.188156086804440        46.924821598341460        0.0000000000000000     
  -88.138932802680415        46.924630607062049        0.0000000000000000     
  -88.197752632314845        46.963032599971086        0.0000000000000000     
  -88.304444334294985        46.996709041536242        0.0000000000000000     
  -88.258296419549580        47.008726906830290        0.0000000000000000     
  -88.204293773924306        46.993728736090752        0.0000000000000000     
  -88.054769093903246        46.952771604640063        0.0000000000000000     
  -87.928662542502053        46.946014250285202        0.0000000000000000     
  -88.090405698585769        47.060102237309756        0.0000000000000000     
  -88.092037355404287        46.922021513609941        0.0000000000000000     
  -88.049771160125729        46.916780075816384        0.0000000000000000     
  -88.100094367552344        46.958985586176972        0.0000000000000000     
  -88.020783115483525        46.909393745542168        0.0000000000000000     
  -88.000581554317918        46.936931920504932        0.0000000000000000     
  -88.103085136927660        46.990084737851895        0.0000000000000000     
  -88.062721222864596        46.994832778202323        0.0000000000000000     
  -88.015552218150788        46.989763662598314        0.0000000000000000     
  -87.825003434366437        46.940750970741853        0.0000000000000000     
  -87.718887851451470        46.971193091160302        0.0000000000000000     
  -87.849187103771555        47.054759332861160        0.0000000000000000     
  -87.644650724818632        46.988290283795074        0.0000000000000000     
  -87.646373115024304        47.071492292851197        0.0000000000000000     
  -84.851432216247957        46.987065075378567        0.0000000000000000     
  -84.763498641169122        47.006462148729995        0.0000000000000000     
  -84.696587984729220        46.967701105437449        0.0000000000000000     
  -91.334435868459167        47.162474039856392        0.0000000000000000     
  -91.258917677717662        47.181106610789541        0.0000000000000000     
  -91.154186329433799        47.170160529076682        0.0000000000000000     
  -91.224809120035786        47.244484601488615        0.0000000000000000     
  -91.054990741633887        47.173338873740548        0.0000000000000000     
  -90.953031268449436        47.171463520365364        0.0000000000000000     