  TITLE = "SEM Quad mesh" 
  VARIABLES = "x","y", "z"
 ZONE I=           7 ,J=           7 , F=POINT
 -0.87179E+02  0.46585E+02  0.00000E+00
 -0.87174E+02  0.46585E+02  0.00000E+00
 -0.87162E+02  0.46586E+02  0.00000E+00
 -0.87146E+02  0.46586E+02  0.00000E+00
 -0.87130E+02  0.46587E+02  0.00000E+00
 -0.87118E+02  0.46587E+02  0.00000E+00
 -0.87113E+02  0.46587E+02  0.00000E+00
 -0.87182E+02  0.46589E+02  0.00000E+00
 -0.87178E+02  0.46590E+02  0.00000E+00
 -0.87165E+02  0.46590E+02  0.00000E+00
 -0.87148E+02  0.46591E+02  0.00000E+00
 -0.87131E+02  0.46592E+02  0.00000E+00
 -0.87119E+02  0.46592E+02  0.00000E+00
 -0.87114E+02  0.46593E+02  0.00000E+00
 -0.87191E+02  0.46600E+02  0.00000E+00
 -0.87186E+02  0.46601E+02  0.00000E+00
 -0.87172E+02  0.46602E+02  0.00000E+00
 -0.87154E+02  0.46604E+02  0.00000E+00
 -0.87135E+02  0.46606E+02  0.00000E+00
 -0.87121E+02  0.46607E+02  0.00000E+00
 -0.87116E+02  0.46608E+02  0.00000E+00
 -0.87203E+02  0.46615E+02  0.00000E+00
 -0.87198E+02  0.46616E+02  0.00000E+00
 -0.87182E+02  0.46619E+02  0.00000E+00
 -0.87161E+02  0.46622E+02  0.00000E+00
 -0.87140E+02  0.46625E+02  0.00000E+00
 -0.87125E+02  0.46627E+02  0.00000E+00
 -0.87119E+02  0.46628E+02  0.00000E+00
 -0.87215E+02  0.46630E+02  0.00000E+00
 -0.87209E+02  0.46632E+02  0.00000E+00
 -0.87192E+02  0.46635E+02  0.00000E+00
 -0.87169E+02  0.46640E+02  0.00000E+00
 -0.87145E+02  0.46644E+02  0.00000E+00
 -0.87128E+02  0.46648E+02  0.00000E+00
 -0.87122E+02  0.46649E+02  0.00000E+00
 -0.87224E+02  0.46641E+02  0.00000E+00
 -0.87218E+02  0.46643E+02  0.00000E+00
 -0.87199E+02  0.46647E+02  0.00000E+00
 -0.87174E+02  0.46653E+02  0.00000E+00
 -0.87149E+02  0.46658E+02  0.00000E+00
 -0.87131E+02  0.46663E+02  0.00000E+00
 -0.87124E+02  0.46664E+02  0.00000E+00
 -0.87228E+02  0.46646E+02  0.00000E+00
 -0.87221E+02  0.46647E+02  0.00000E+00
 -0.87202E+02  0.46652E+02  0.00000E+00
 -0.87176E+02  0.46658E+02  0.00000E+00
 -0.87151E+02  0.46664E+02  0.00000E+00
 -0.87132E+02  0.46668E+02  0.00000E+00
 -0.87125E+02  0.46670E+02  0.00000E+00
 ZONE I=           7 ,J=           7 , F=POINT
 -0.87113E+02  0.46587E+02  0.00000E+00
 -0.87107E+02  0.46587E+02  0.00000E+00
 -0.87090E+02  0.46586E+02  0.00000E+00
 -0.87067E+02  0.46585E+02  0.00000E+00
 -0.87044E+02  0.46584E+02  0.00000E+00
 -0.87027E+02  0.46584E+02  0.00000E+00
 -0.87021E+02  0.46583E+02  0.00000E+00
 -0.87114E+02  0.46593E+02  0.00000E+00
 -0.87108E+02  0.46592E+02  0.00000E+00
 -0.87091E+02  0.46592E+02  0.00000E+00
 -0.87068E+02  0.46591E+02  0.00000E+00
 -0.87044E+02  0.46590E+02  0.00000E+00
 -0.87027E+02  0.46590E+02  0.00000E+00
 -0.87021E+02  0.46589E+02  0.00000E+00
 -0.87116E+02  0.46608E+02  0.00000E+00
 -0.87110E+02  0.46608E+02  0.00000E+00
 -0.87093E+02  0.46607E+02  0.00000E+00
 -0.87070E+02  0.46607E+02  0.00000E+00
 -0.87046E+02  0.46606E+02  0.00000E+00
 -0.87029E+02  0.46606E+02  0.00000E+00
 -0.87023E+02  0.46606E+02  0.00000E+00
 -0.87119E+02  0.46628E+02  0.00000E+00
 -0.87113E+02  0.46628E+02  0.00000E+00
 -0.87096E+02  0.46628E+02  0.00000E+00
 -0.87072E+02  0.46628E+02  0.00000E+00
 -0.87049E+02  0.46628E+02  0.00000E+00
 -0.87031E+02  0.46629E+02  0.00000E+00
 -0.87025E+02  0.46629E+02  0.00000E+00
 -0.87122E+02  0.46649E+02  0.00000E+00
 -0.87116E+02  0.46649E+02  0.00000E+00
 -0.87098E+02  0.46649E+02  0.00000E+00
 -0.87075E+02  0.46650E+02  0.00000E+00
 -0.87051E+02  0.46651E+02  0.00000E+00
 -0.87034E+02  0.46651E+02  0.00000E+00
 -0.87027E+02  0.46651E+02  0.00000E+00
 -0.87124E+02  0.46664E+02  0.00000E+00
 -0.87118E+02  0.46664E+02  0.00000E+00
 -0.87100E+02  0.46665E+02  0.00000E+00
 -0.87076E+02  0.46666E+02  0.00000E+00
 -0.87053E+02  0.46667E+02  0.00000E+00
 -0.87035E+02  0.46667E+02  0.00000E+00
 -0.87029E+02  0.46668E+02  0.00000E+00
 -0.87125E+02  0.46670E+02  0.00000E+00
 -0.87119E+02  0.46670E+02  0.00000E+00
 -0.87101E+02  0.46671E+02  0.00000E+00
 -0.87077E+02  0.46672E+02  0.00000E+00
 -0.87053E+02  0.46673E+02  0.00000E+00
 -0.87036E+02  0.46674E+02  0.00000E+00
 -0.87029E+02  0.46674E+02  0.00000E+00
 ZONE I=           7 ,J=           7 , F=POINT
 -0.87021E+02  0.46583E+02  0.00000E+00
 -0.87014E+02  0.46583E+02  0.00000E+00
 -0.86996E+02  0.46582E+02  0.00000E+00
 -0.86971E+02  0.46581E+02  0.00000E+00
 -0.86946E+02  0.46579E+02  0.00000E+00
 -0.86928E+02  0.46578E+02  0.00000E+00
 -0.86921E+02  0.46578E+02  0.00000E+00
 -0.87021E+02  0.46589E+02  0.00000E+00
 -0.87015E+02  0.46589E+02  0.00000E+00
 -0.86996E+02  0.46588E+02  0.00000E+00
 -0.86972E+02  0.46587E+02  0.00000E+00
 -0.86947E+02  0.46586E+02  0.00000E+00
 -0.86928E+02  0.46585E+02  0.00000E+00
 -0.86922E+02  0.46584E+02  0.00000E+00
 -0.87023E+02  0.46606E+02  0.00000E+00
 -0.87016E+02  0.46606E+02  0.00000E+00
 -0.86998E+02  0.46605E+02  0.00000E+00
 -0.86973E+02  0.46604E+02  0.00000E+00
 -0.86948E+02  0.46603E+02  0.00000E+00
 -0.86930E+02  0.46602E+02  0.00000E+00
 -0.86923E+02  0.46602E+02  0.00000E+00
 -0.87025E+02  0.46629E+02  0.00000E+00
 -0.87018E+02  0.46628E+02  0.00000E+00
 -0.87000E+02  0.46628E+02  0.00000E+00
 -0.86975E+02  0.46627E+02  0.00000E+00
 -0.86951E+02  0.46626E+02  0.00000E+00
 -0.86933E+02  0.46626E+02  0.00000E+00
 -0.86926E+02  0.46626E+02  0.00000E+00
 -0.87027E+02  0.46651E+02  0.00000E+00
 -0.87021E+02  0.46651E+02  0.00000E+00
 -0.87002E+02  0.46651E+02  0.00000E+00
 -0.86978E+02  0.46650E+02  0.00000E+00
 -0.86953E+02  0.46650E+02  0.00000E+00
 -0.86935E+02  0.46650E+02  0.00000E+00
 -0.86928E+02  0.46650E+02  0.00000E+00
 -0.87029E+02  0.46668E+02  0.00000E+00
 -0.87022E+02  0.46668E+02  0.00000E+00
 -0.87004E+02  0.46668E+02  0.00000E+00
 -0.86979E+02  0.46668E+02  0.00000E+00
 -0.86955E+02  0.46667E+02  0.00000E+00
 -0.86937E+02  0.46667E+02  0.00000E+00
 -0.86930E+02  0.46667E+02  0.00000E+00
 -0.87029E+02  0.46674E+02  0.00000E+00
 -0.87023E+02  0.46674E+02  0.00000E+00
 -0.87005E+02  0.46674E+02  0.00000E+00
 -0.86980E+02  0.46674E+02  0.00000E+00
 -0.86955E+02  0.46674E+02  0.00000E+00
 -0.86937E+02  0.46674E+02  0.00000E+00
 -0.86931E+02  0.46674E+02  0.00000E+00
 ZONE I=           7 ,J=           7 , F=POINT
 -0.86921E+02  0.46578E+02  0.00000E+00
 -0.86914E+02  0.46578E+02  0.00000E+00
 -0.86895E+02  0.46577E+02  0.00000E+00
 -0.86870E+02  0.46577E+02  0.00000E+00
 -0.86844E+02  0.46576E+02  0.00000E+00
 -0.86825E+02  0.46576E+02  0.00000E+00
 -0.86818E+02  0.46575E+02  0.00000E+00
 -0.86922E+02  0.46584E+02  0.00000E+00
 -0.86915E+02  0.46584E+02  0.00000E+00
 -0.86896E+02  0.46584E+02  0.00000E+00
 -0.86870E+02  0.46583E+02  0.00000E+00
 -0.86844E+02  0.46583E+02  0.00000E+00
 -0.86826E+02  0.46582E+02  0.00000E+00
 -0.86819E+02  0.46582E+02  0.00000E+00
 -0.86923E+02  0.46602E+02  0.00000E+00
 -0.86917E+02  0.46602E+02  0.00000E+00
 -0.86898E+02  0.46601E+02  0.00000E+00
 -0.86872E+02  0.46601E+02  0.00000E+00
 -0.86847E+02  0.46600E+02  0.00000E+00
 -0.86828E+02  0.46600E+02  0.00000E+00
 -0.86821E+02  0.46600E+02  0.00000E+00
 -0.86926E+02  0.46626E+02  0.00000E+00
 -0.86919E+02  0.46626E+02  0.00000E+00
 -0.86900E+02  0.46625E+02  0.00000E+00
 -0.86875E+02  0.46625E+02  0.00000E+00
 -0.86849E+02  0.46625E+02  0.00000E+00
 -0.86831E+02  0.46625E+02  0.00000E+00
 -0.86824E+02  0.46625E+02  0.00000E+00
 -0.86928E+02  0.46650E+02  0.00000E+00
 -0.86921E+02  0.46650E+02  0.00000E+00
 -0.86903E+02  0.46650E+02  0.00000E+00
 -0.86878E+02  0.46649E+02  0.00000E+00
 -0.86852E+02  0.46649E+02  0.00000E+00
 -0.86834E+02  0.46649E+02  0.00000E+00
 -0.86827E+02  0.46649E+02  0.00000E+00
 -0.86930E+02  0.46667E+02  0.00000E+00
 -0.86923E+02  0.46667E+02  0.00000E+00
 -0.86905E+02  0.46667E+02  0.00000E+00
 -0.86880E+02  0.46667E+02  0.00000E+00
 -0.86854E+02  0.46667E+02  0.00000E+00
 -0.86836E+02  0.46667E+02  0.00000E+00
 -0.86829E+02  0.46667E+02  0.00000E+00
 -0.86931E+02  0.46674E+02  0.00000E+00
 -0.86924E+02  0.46674E+02  0.00000E+00
 -0.86905E+02  0.46674E+02  0.00000E+00
 -0.86880E+02  0.46674E+02  0.00000E+00
 -0.86855E+02  0.46674E+02  0.00000E+00
 -0.86837E+02  0.46674E+02  0.00000E+00
 -0.86830E+02  0.46674E+02  0.00000E+00
 ZONE I=           7 ,J=           7 , F=POINT
 -0.86818E+02  0.46575E+02  0.00000E+00
 -0.86811E+02  0.46576E+02  0.00000E+00
 -0.86792E+02  0.46576E+02  0.00000E+00
 -0.86766E+02  0.46577E+02  0.00000E+00
 -0.86740E+02  0.46578E+02  0.00000E+00
 -0.86721E+02  0.46578E+02  0.00000E+00
 -0.86714E+02  0.46579E+02  0.00000E+00
 -0.86819E+02  0.46582E+02  0.00000E+00
 -0.86812E+02  0.46582E+02  0.00000E+00
 -0.86793E+02  0.46583E+02  0.00000E+00
 -0.86767E+02  0.46584E+02  0.00000E+00
 -0.86741E+02  0.46584E+02  0.00000E+00
 -0.86722E+02  0.46585E+02  0.00000E+00
 -0.86715E+02  0.46585E+02  0.00000E+00
 -0.86821E+02  0.46600E+02  0.00000E+00
 -0.86814E+02  0.46600E+02  0.00000E+00
 -0.86795E+02  0.46601E+02  0.00000E+00
 -0.86769E+02  0.46601E+02  0.00000E+00
 -0.86743E+02  0.46602E+02  0.00000E+00
 -0.86724E+02  0.46603E+02  0.00000E+00
 -0.86717E+02  0.46603E+02  0.00000E+00
 -0.86824E+02  0.46625E+02  0.00000E+00
 -0.86817E+02  0.46625E+02  0.00000E+00
 -0.86798E+02  0.46625E+02  0.00000E+00
 -0.86773E+02  0.46626E+02  0.00000E+00
 -0.86747E+02  0.46627E+02  0.00000E+00
 -0.86728E+02  0.46627E+02  0.00000E+00
 -0.86721E+02  0.46627E+02  0.00000E+00
 -0.86827E+02  0.46649E+02  0.00000E+00
 -0.86820E+02  0.46649E+02  0.00000E+00
 -0.86801E+02  0.46650E+02  0.00000E+00
 -0.86776E+02  0.46650E+02  0.00000E+00
 -0.86750E+02  0.46651E+02  0.00000E+00
 -0.86732E+02  0.46651E+02  0.00000E+00
 -0.86725E+02  0.46652E+02  0.00000E+00
 -0.86829E+02  0.46667E+02  0.00000E+00
 -0.86822E+02  0.46667E+02  0.00000E+00
 -0.86804E+02  0.46668E+02  0.00000E+00
 -0.86778E+02  0.46668E+02  0.00000E+00
 -0.86753E+02  0.46669E+02  0.00000E+00
 -0.86734E+02  0.46669E+02  0.00000E+00
 -0.86727E+02  0.46669E+02  0.00000E+00
 -0.86830E+02  0.46674E+02  0.00000E+00
 -0.86823E+02  0.46674E+02  0.00000E+00
 -0.86804E+02  0.46674E+02  0.00000E+00
 -0.86779E+02  0.46675E+02  0.00000E+00
 -0.86754E+02  0.46675E+02  0.00000E+00
 -0.86735E+02  0.46676E+02  0.00000E+00
 -0.86728E+02  0.46676E+02  0.00000E+00
 ZONE I=           7 ,J=           7 , F=POINT
 -0.86714E+02  0.46579E+02  0.00000E+00
 -0.86707E+02  0.46579E+02  0.00000E+00
 -0.86688E+02  0.46581E+02  0.00000E+00
 -0.86663E+02  0.46583E+02  0.00000E+00
 -0.86638E+02  0.46585E+02  0.00000E+00
 -0.86619E+02  0.46587E+02  0.00000E+00
 -0.86612E+02  0.46588E+02  0.00000E+00
 -0.86715E+02  0.46585E+02  0.00000E+00
 -0.86708E+02  0.46586E+02  0.00000E+00
 -0.86689E+02  0.46587E+02  0.00000E+00
 -0.86664E+02  0.46589E+02  0.00000E+00
 -0.86639E+02  0.46592E+02  0.00000E+00
 -0.86620E+02  0.46593E+02  0.00000E+00
 -0.86613E+02  0.46594E+02  0.00000E+00
 -0.86717E+02  0.46603E+02  0.00000E+00
 -0.86711E+02  0.46603E+02  0.00000E+00
 -0.86692E+02  0.46605E+02  0.00000E+00
 -0.86667E+02  0.46607E+02  0.00000E+00
 -0.86642E+02  0.46609E+02  0.00000E+00
 -0.86623E+02  0.46610E+02  0.00000E+00
 -0.86616E+02  0.46611E+02  0.00000E+00
 -0.86721E+02  0.46627E+02  0.00000E+00
 -0.86714E+02  0.46628E+02  0.00000E+00
 -0.86696E+02  0.46629E+02  0.00000E+00
 -0.86671E+02  0.46631E+02  0.00000E+00
 -0.86645E+02  0.46632E+02  0.00000E+00
 -0.86627E+02  0.46633E+02  0.00000E+00
 -0.86620E+02  0.46634E+02  0.00000E+00
 -0.86725E+02  0.46652E+02  0.00000E+00
 -0.86718E+02  0.46652E+02  0.00000E+00
 -0.86700E+02  0.46653E+02  0.00000E+00
 -0.86675E+02  0.46654E+02  0.00000E+00
 -0.86649E+02  0.46656E+02  0.00000E+00
 -0.86631E+02  0.46657E+02  0.00000E+00
 -0.86624E+02  0.46657E+02  0.00000E+00
 -0.86727E+02  0.46669E+02  0.00000E+00
 -0.86721E+02  0.46670E+02  0.00000E+00
 -0.86702E+02  0.46670E+02  0.00000E+00
 -0.86677E+02  0.46672E+02  0.00000E+00
 -0.86652E+02  0.46673E+02  0.00000E+00
 -0.86634E+02  0.46674E+02  0.00000E+00
 -0.86627E+02  0.46674E+02  0.00000E+00
 -0.86728E+02  0.46676E+02  0.00000E+00
 -0.86722E+02  0.46676E+02  0.00000E+00
 -0.86703E+02  0.46677E+02  0.00000E+00
 -0.86678E+02  0.46678E+02  0.00000E+00
 -0.86653E+02  0.46679E+02  0.00000E+00
 -0.86635E+02  0.46680E+02  0.00000E+00
 -0.86628E+02  0.46680E+02  0.00000E+00
 ZONE I=           7 ,J=           7 , F=POINT
 -0.86612E+02  0.46588E+02  0.00000E+00
 -0.86606E+02  0.46588E+02  0.00000E+00
 -0.86588E+02  0.46590E+02  0.00000E+00
 -0.86564E+02  0.46593E+02  0.00000E+00
 -0.86540E+02  0.46596E+02  0.00000E+00
 -0.86522E+02  0.46598E+02  0.00000E+00
 -0.86516E+02  0.46599E+02  0.00000E+00
 -0.86613E+02  0.46594E+02  0.00000E+00
 -0.86607E+02  0.46594E+02  0.00000E+00
 -0.86589E+02  0.46596E+02  0.00000E+00
 -0.86565E+02  0.46599E+02  0.00000E+00
 -0.86541E+02  0.46602E+02  0.00000E+00
 -0.86523E+02  0.46604E+02  0.00000E+00
 -0.86517E+02  0.46604E+02  0.00000E+00
 -0.86616E+02  0.46611E+02  0.00000E+00
 -0.86610E+02  0.46611E+02  0.00000E+00
 -0.86592E+02  0.46613E+02  0.00000E+00
 -0.86568E+02  0.46615E+02  0.00000E+00
 -0.86544E+02  0.46618E+02  0.00000E+00
 -0.86526E+02  0.46619E+02  0.00000E+00
 -0.86519E+02  0.46620E+02  0.00000E+00
 -0.86620E+02  0.46634E+02  0.00000E+00
 -0.86614E+02  0.46634E+02  0.00000E+00
 -0.86596E+02  0.46636E+02  0.00000E+00
 -0.86572E+02  0.46638E+02  0.00000E+00
 -0.86547E+02  0.46639E+02  0.00000E+00
 -0.86530E+02  0.46641E+02  0.00000E+00
 -0.86523E+02  0.46641E+02  0.00000E+00
 -0.86624E+02  0.46657E+02  0.00000E+00
 -0.86618E+02  0.46657E+02  0.00000E+00
 -0.86600E+02  0.46658E+02  0.00000E+00
 -0.86575E+02  0.46660E+02  0.00000E+00
 -0.86551E+02  0.46661E+02  0.00000E+00
 -0.86533E+02  0.46662E+02  0.00000E+00
 -0.86527E+02  0.46663E+02  0.00000E+00
 -0.86627E+02  0.46674E+02  0.00000E+00
 -0.86621E+02  0.46674E+02  0.00000E+00
 -0.86603E+02  0.46675E+02  0.00000E+00
 -0.86578E+02  0.46676E+02  0.00000E+00
 -0.86554E+02  0.46677E+02  0.00000E+00
 -0.86536E+02  0.46678E+02  0.00000E+00
 -0.86529E+02  0.46678E+02  0.00000E+00
 -0.86628E+02  0.46680E+02  0.00000E+00
 -0.86622E+02  0.46680E+02  0.00000E+00
 -0.86604E+02  0.46681E+02  0.00000E+00
 -0.86579E+02  0.46682E+02  0.00000E+00
 -0.86555E+02  0.46683E+02  0.00000E+00
 -0.86537E+02  0.46684E+02  0.00000E+00
 -0.86530E+02  0.46684E+02  0.00000E+00
 ZONE I=           7 ,J=           7 , F=POINT
 -0.86516E+02  0.46599E+02  0.00000E+00
 -0.86510E+02  0.46599E+02  0.00000E+00
 -0.86494E+02  0.46601E+02  0.00000E+00
 -0.86472E+02  0.46603E+02  0.00000E+00
 -0.86450E+02  0.46604E+02  0.00000E+00
 -0.86434E+02  0.46606E+02  0.00000E+00
 -0.86428E+02  0.46606E+02  0.00000E+00
 -0.86517E+02  0.46604E+02  0.00000E+00
 -0.86511E+02  0.46605E+02  0.00000E+00
 -0.86495E+02  0.46606E+02  0.00000E+00
 -0.86473E+02  0.46608E+02  0.00000E+00
 -0.86451E+02  0.46610E+02  0.00000E+00
 -0.86434E+02  0.46611E+02  0.00000E+00
 -0.86429E+02  0.46612E+02  0.00000E+00
 -0.86519E+02  0.46620E+02  0.00000E+00
 -0.86513E+02  0.46620E+02  0.00000E+00
 -0.86497E+02  0.46621E+02  0.00000E+00
 -0.86474E+02  0.46623E+02  0.00000E+00
 -0.86452E+02  0.46624E+02  0.00000E+00
 -0.86436E+02  0.46625E+02  0.00000E+00
 -0.86430E+02  0.46626E+02  0.00000E+00
 -0.86523E+02  0.46641E+02  0.00000E+00
 -0.86517E+02  0.46642E+02  0.00000E+00
 -0.86500E+02  0.46642E+02  0.00000E+00
 -0.86477E+02  0.46643E+02  0.00000E+00
 -0.86454E+02  0.46644E+02  0.00000E+00
 -0.86437E+02  0.46645E+02  0.00000E+00
 -0.86431E+02  0.46645E+02  0.00000E+00
 -0.86527E+02  0.46663E+02  0.00000E+00
 -0.86520E+02  0.46663E+02  0.00000E+00
 -0.86503E+02  0.46663E+02  0.00000E+00
 -0.86480E+02  0.46663E+02  0.00000E+00
 -0.86456E+02  0.46664E+02  0.00000E+00
 -0.86439E+02  0.46664E+02  0.00000E+00
 -0.86433E+02  0.46664E+02  0.00000E+00
 -0.86529E+02  0.46678E+02  0.00000E+00
 -0.86523E+02  0.46678E+02  0.00000E+00
 -0.86505E+02  0.46678E+02  0.00000E+00
 -0.86481E+02  0.46678E+02  0.00000E+00
 -0.86458E+02  0.46678E+02  0.00000E+00
 -0.86440E+02  0.46678E+02  0.00000E+00
 -0.86434E+02  0.46678E+02  0.00000E+00
 -0.86530E+02  0.46684E+02  0.00000E+00
 -0.86524E+02  0.46684E+02  0.00000E+00
 -0.86506E+02  0.46684E+02  0.00000E+00
 -0.86482E+02  0.46684E+02  0.00000E+00
 -0.86458E+02  0.46683E+02  0.00000E+00
 -0.86441E+02  0.46683E+02  0.00000E+00
 -0.86434E+02  0.46683E+02  0.00000E+00
 ZONE I=           7 ,J=           7 , F=POINT
 -0.86428E+02  0.46606E+02  0.00000E+00
 -0.86424E+02  0.46606E+02  0.00000E+00
 -0.86413E+02  0.46606E+02  0.00000E+00
 -0.86398E+02  0.46606E+02  0.00000E+00
 -0.86382E+02  0.46606E+02  0.00000E+00
 -0.86371E+02  0.46606E+02  0.00000E+00
 -0.86367E+02  0.46606E+02  0.00000E+00
 -0.86429E+02  0.46612E+02  0.00000E+00
 -0.86424E+02  0.46611E+02  0.00000E+00
 -0.86412E+02  0.46611E+02  0.00000E+00
 -0.86396E+02  0.46611E+02  0.00000E+00
 -0.86380E+02  0.46610E+02  0.00000E+00
 -0.86369E+02  0.46610E+02  0.00000E+00
 -0.86364E+02  0.46610E+02  0.00000E+00
 -0.86430E+02  0.46626E+02  0.00000E+00
 -0.86425E+02  0.46625E+02  0.00000E+00
 -0.86411E+02  0.46624E+02  0.00000E+00
 -0.86393E+02  0.46623E+02  0.00000E+00
 -0.86375E+02  0.46621E+02  0.00000E+00
 -0.86361E+02  0.46620E+02  0.00000E+00
 -0.86357E+02  0.46620E+02  0.00000E+00
 -0.86431E+02  0.46645E+02  0.00000E+00
 -0.86425E+02  0.46644E+02  0.00000E+00
 -0.86410E+02  0.46642E+02  0.00000E+00
 -0.86389E+02  0.46640E+02  0.00000E+00
 -0.86367E+02  0.46637E+02  0.00000E+00
 -0.86352E+02  0.46635E+02  0.00000E+00
 -0.86346E+02  0.46634E+02  0.00000E+00
 -0.86433E+02  0.46664E+02  0.00000E+00
 -0.86426E+02  0.46663E+02  0.00000E+00
 -0.86408E+02  0.46660E+02  0.00000E+00
 -0.86384E+02  0.46656E+02  0.00000E+00
 -0.86360E+02  0.46652E+02  0.00000E+00
 -0.86342E+02  0.46650E+02  0.00000E+00
 -0.86336E+02  0.46649E+02  0.00000E+00
 -0.86434E+02  0.46678E+02  0.00000E+00
 -0.86427E+02  0.46677E+02  0.00000E+00
 -0.86407E+02  0.46673E+02  0.00000E+00
 -0.86381E+02  0.46668E+02  0.00000E+00
 -0.86354E+02  0.46664E+02  0.00000E+00
 -0.86335E+02  0.46660E+02  0.00000E+00
 -0.86328E+02  0.46659E+02  0.00000E+00
 -0.86434E+02  0.46683E+02  0.00000E+00
 -0.86427E+02  0.46682E+02  0.00000E+00
 -0.86407E+02  0.46678E+02  0.00000E+00
 -0.86380E+02  0.46673E+02  0.00000E+00
 -0.86352E+02  0.46668E+02  0.00000E+00
 -0.86332E+02  0.46664E+02  0.00000E+00
 -0.86325E+02  0.46663E+02  0.00000E+00
 ZONE I=           7 ,J=           7 , F=POINT
 -0.84882E+02  0.46592E+02  0.00000E+00
 -0.84877E+02  0.46592E+02  0.00000E+00
 -0.84866E+02  0.46592E+02  0.00000E+00
 -0.84849E+02  0.46592E+02  0.00000E+00
 -0.84833E+02  0.46592E+02  0.00000E+00
 -0.84821E+02  0.46592E+02  0.00000E+00
 -0.84817E+02  0.46592E+02  0.00000E+00
 -0.84885E+02  0.46596E+02  0.00000E+00
 -0.84881E+02  0.46596E+02  0.00000E+00
 -0.84868E+02  0.46597E+02  0.00000E+00
 -0.84851E+02  0.46597E+02  0.00000E+00
 -0.84835E+02  0.46598E+02  0.00000E+00
 -0.84822E+02  0.46598E+02  0.00000E+00
 -0.84818E+02  0.46598E+02  0.00000E+00
 -0.84894E+02  0.46608E+02  0.00000E+00
 -0.84889E+02  0.46608E+02  0.00000E+00
 -0.84876E+02  0.46610E+02  0.00000E+00
 -0.84857E+02  0.46611E+02  0.00000E+00
 -0.84839E+02  0.46613E+02  0.00000E+00
 -0.84825E+02  0.46614E+02  0.00000E+00
 -0.84820E+02  0.46615E+02  0.00000E+00
 -0.84907E+02  0.46624E+02  0.00000E+00
 -0.84901E+02  0.46625E+02  0.00000E+00
 -0.84886E+02  0.46627E+02  0.00000E+00
 -0.84865E+02  0.46630E+02  0.00000E+00
 -0.84844E+02  0.46634E+02  0.00000E+00
 -0.84829E+02  0.46636E+02  0.00000E+00
 -0.84823E+02  0.46637E+02  0.00000E+00
 -0.84919E+02  0.46640E+02  0.00000E+00
 -0.84913E+02  0.46642E+02  0.00000E+00
 -0.84896E+02  0.46645E+02  0.00000E+00
 -0.84873E+02  0.46650E+02  0.00000E+00
 -0.84850E+02  0.46654E+02  0.00000E+00
 -0.84833E+02  0.46658E+02  0.00000E+00
 -0.84827E+02  0.46659E+02  0.00000E+00
 -0.84928E+02  0.46652E+02  0.00000E+00
 -0.84922E+02  0.46654E+02  0.00000E+00
 -0.84903E+02  0.46658E+02  0.00000E+00
 -0.84879E+02  0.46664E+02  0.00000E+00
 -0.84854E+02  0.46669E+02  0.00000E+00
 -0.84836E+02  0.46673E+02  0.00000E+00
 -0.84829E+02  0.46675E+02  0.00000E+00
 -0.84932E+02  0.46656E+02  0.00000E+00
 -0.84925E+02  0.46658E+02  0.00000E+00
 -0.84906E+02  0.46663E+02  0.00000E+00
 -0.84881E+02  0.46669E+02  0.00000E+00
 -0.84855E+02  0.46675E+02  0.00000E+00
 -0.84837E+02  0.46679E+02  0.00000E+00
 -0.84830E+02  0.46681E+02  0.00000E+00
 ZONE I=           7 ,J=           7 , F=POINT
 -0.84817E+02  0.46592E+02  0.00000E+00
 -0.84810E+02  0.46592E+02  0.00000E+00
 -0.84792E+02  0.46592E+02  0.00000E+00
 -0.84767E+02  0.46592E+02  0.00000E+00
 -0.84743E+02  0.46592E+02  0.00000E+00
 -0.84725E+02  0.46592E+02  0.00000E+00
 -0.84718E+02  0.46592E+02  0.00000E+00
 -0.84818E+02  0.46598E+02  0.00000E+00
 -0.84811E+02  0.46598E+02  0.00000E+00
 -0.84793E+02  0.46598E+02  0.00000E+00
 -0.84769E+02  0.46599E+02  0.00000E+00
 -0.84744E+02  0.46599E+02  0.00000E+00
 -0.84726E+02  0.46599E+02  0.00000E+00
 -0.84719E+02  0.46599E+02  0.00000E+00
 -0.84820E+02  0.46615E+02  0.00000E+00
 -0.84814E+02  0.46615E+02  0.00000E+00
 -0.84796E+02  0.46615E+02  0.00000E+00
 -0.84772E+02  0.46616E+02  0.00000E+00
 -0.84747E+02  0.46616E+02  0.00000E+00
 -0.84729E+02  0.46617E+02  0.00000E+00
 -0.84723E+02  0.46617E+02  0.00000E+00
 -0.84823E+02  0.46637E+02  0.00000E+00
 -0.84817E+02  0.46637E+02  0.00000E+00
 -0.84799E+02  0.46638E+02  0.00000E+00
 -0.84776E+02  0.46639E+02  0.00000E+00
 -0.84752E+02  0.46640E+02  0.00000E+00
 -0.84734E+02  0.46641E+02  0.00000E+00
 -0.84728E+02  0.46641E+02  0.00000E+00
 -0.84827E+02  0.46659E+02  0.00000E+00
 -0.84820E+02  0.46659E+02  0.00000E+00
 -0.84803E+02  0.46661E+02  0.00000E+00
 -0.84780E+02  0.46662E+02  0.00000E+00
 -0.84756E+02  0.46664E+02  0.00000E+00
 -0.84739E+02  0.46666E+02  0.00000E+00
 -0.84733E+02  0.46666E+02  0.00000E+00
 -0.84829E+02  0.46675E+02  0.00000E+00
 -0.84823E+02  0.46676E+02  0.00000E+00
 -0.84806E+02  0.46677E+02  0.00000E+00
 -0.84783E+02  0.46680E+02  0.00000E+00
 -0.84759E+02  0.46682E+02  0.00000E+00
 -0.84743E+02  0.46684E+02  0.00000E+00
 -0.84736E+02  0.46684E+02  0.00000E+00
 -0.84830E+02  0.46681E+02  0.00000E+00
 -0.84824E+02  0.46682E+02  0.00000E+00
 -0.84807E+02  0.46683E+02  0.00000E+00
 -0.84784E+02  0.46686E+02  0.00000E+00
 -0.84761E+02  0.46688E+02  0.00000E+00
 -0.84744E+02  0.46690E+02  0.00000E+00
 -0.84738E+02  0.46691E+02  0.00000E+00
 ZONE I=           7 ,J=           7 , F=POINT
 -0.84718E+02  0.46592E+02  0.00000E+00
 -0.84711E+02  0.46593E+02  0.00000E+00
 -0.84693E+02  0.46596E+02  0.00000E+00
 -0.84669E+02  0.46600E+02  0.00000E+00
 -0.84644E+02  0.46604E+02  0.00000E+00
 -0.84626E+02  0.46607E+02  0.00000E+00
 -0.84619E+02  0.46608E+02  0.00000E+00
 -0.84719E+02  0.46599E+02  0.00000E+00
 -0.84713E+02  0.46600E+02  0.00000E+00
 -0.84695E+02  0.46603E+02  0.00000E+00
 -0.84670E+02  0.46607E+02  0.00000E+00
 -0.84646E+02  0.46611E+02  0.00000E+00
 -0.84628E+02  0.46613E+02  0.00000E+00
 -0.84621E+02  0.46614E+02  0.00000E+00
 -0.84723E+02  0.46617E+02  0.00000E+00
 -0.84717E+02  0.46618E+02  0.00000E+00
 -0.84699E+02  0.46620E+02  0.00000E+00
 -0.84675E+02  0.46624E+02  0.00000E+00
 -0.84651E+02  0.46628E+02  0.00000E+00
 -0.84634E+02  0.46631E+02  0.00000E+00
 -0.84627E+02  0.46632E+02  0.00000E+00
 -0.84728E+02  0.46641E+02  0.00000E+00
 -0.84722E+02  0.46642E+02  0.00000E+00
 -0.84705E+02  0.46645E+02  0.00000E+00
 -0.84682E+02  0.46648E+02  0.00000E+00
 -0.84659E+02  0.46652E+02  0.00000E+00
 -0.84642E+02  0.46654E+02  0.00000E+00
 -0.84635E+02  0.46655E+02  0.00000E+00
 -0.84733E+02  0.46666E+02  0.00000E+00
 -0.84727E+02  0.46667E+02  0.00000E+00
 -0.84710E+02  0.46669E+02  0.00000E+00
 -0.84688E+02  0.46672E+02  0.00000E+00
 -0.84666E+02  0.46676E+02  0.00000E+00
 -0.84649E+02  0.46678E+02  0.00000E+00
 -0.84643E+02  0.46679E+02  0.00000E+00
 -0.84736E+02  0.46684E+02  0.00000E+00
 -0.84730E+02  0.46685E+02  0.00000E+00
 -0.84715E+02  0.46687E+02  0.00000E+00
 -0.84693E+02  0.46690E+02  0.00000E+00
 -0.84671E+02  0.46693E+02  0.00000E+00
 -0.84655E+02  0.46695E+02  0.00000E+00
 -0.84649E+02  0.46696E+02  0.00000E+00
 -0.84738E+02  0.46691E+02  0.00000E+00
 -0.84732E+02  0.46692E+02  0.00000E+00
 -0.84716E+02  0.46694E+02  0.00000E+00
 -0.84695E+02  0.46697E+02  0.00000E+00
 -0.84673E+02  0.46700E+02  0.00000E+00
 -0.84657E+02  0.46702E+02  0.00000E+00
 -0.84652E+02  0.46702E+02  0.00000E+00
 ZONE I=           7 ,J=           7 , F=POINT
 -0.84619E+02  0.46608E+02  0.00000E+00
 -0.84615E+02  0.46610E+02  0.00000E+00
 -0.84605E+02  0.46616E+02  0.00000E+00
 -0.84591E+02  0.46623E+02  0.00000E+00
 -0.84576E+02  0.46631E+02  0.00000E+00
 -0.84566E+02  0.46636E+02  0.00000E+00
 -0.84562E+02  0.46638E+02  0.00000E+00
 -0.84621E+02  0.46614E+02  0.00000E+00
 -0.84618E+02  0.46616E+02  0.00000E+00
 -0.84607E+02  0.46622E+02  0.00000E+00
 -0.84592E+02  0.46629E+02  0.00000E+00
 -0.84578E+02  0.46636E+02  0.00000E+00
 -0.84567E+02  0.46641E+02  0.00000E+00
 -0.84563E+02  0.46643E+02  0.00000E+00
 -0.84627E+02  0.46632E+02  0.00000E+00
 -0.84623E+02  0.46633E+02  0.00000E+00
 -0.84612E+02  0.46638E+02  0.00000E+00
 -0.84596E+02  0.46644E+02  0.00000E+00
 -0.84581E+02  0.46651E+02  0.00000E+00
 -0.84570E+02  0.46655E+02  0.00000E+00
 -0.84565E+02  0.46657E+02  0.00000E+00
 -0.84635E+02  0.46655E+02  0.00000E+00
 -0.84631E+02  0.46657E+02  0.00000E+00
 -0.84619E+02  0.46660E+02  0.00000E+00
 -0.84602E+02  0.46666E+02  0.00000E+00
 -0.84585E+02  0.46671E+02  0.00000E+00
 -0.84573E+02  0.46674E+02  0.00000E+00
 -0.84569E+02  0.46676E+02  0.00000E+00
 -0.84643E+02  0.46679E+02  0.00000E+00
 -0.84639E+02  0.46680E+02  0.00000E+00
 -0.84626E+02  0.46683E+02  0.00000E+00
 -0.84608E+02  0.46687E+02  0.00000E+00
 -0.84590E+02  0.46691E+02  0.00000E+00
 -0.84577E+02  0.46694E+02  0.00000E+00
 -0.84572E+02  0.46695E+02  0.00000E+00
 -0.84649E+02  0.46696E+02  0.00000E+00
 -0.84644E+02  0.46697E+02  0.00000E+00
 -0.84631E+02  0.46699E+02  0.00000E+00
 -0.84612E+02  0.46702E+02  0.00000E+00
 -0.84593E+02  0.46705E+02  0.00000E+00
 -0.84579E+02  0.46708E+02  0.00000E+00
 -0.84574E+02  0.46709E+02  0.00000E+00
 -0.84652E+02  0.46702E+02  0.00000E+00
 -0.84646E+02  0.46703E+02  0.00000E+00
 -0.84632E+02  0.46705E+02  0.00000E+00
 -0.84613E+02  0.46708E+02  0.00000E+00
 -0.84594E+02  0.46711E+02  0.00000E+00
 -0.84580E+02  0.46713E+02  0.00000E+00
 -0.84575E+02  0.46714E+02  0.00000E+00
 ZONE I=           7 ,J=           7 , F=POINT
 -0.87392E+02  0.46672E+02  0.00000E+00
 -0.87388E+02  0.46672E+02  0.00000E+00
 -0.87376E+02  0.46670E+02  0.00000E+00
 -0.87360E+02  0.46669E+02  0.00000E+00
 -0.87344E+02  0.46667E+02  0.00000E+00
 -0.87333E+02  0.46665E+02  0.00000E+00
 -0.87329E+02  0.46665E+02  0.00000E+00
 -0.87395E+02  0.46677E+02  0.00000E+00
 -0.87390E+02  0.46676E+02  0.00000E+00
 -0.87378E+02  0.46675E+02  0.00000E+00
 -0.87362E+02  0.46674E+02  0.00000E+00
 -0.87345E+02  0.46672E+02  0.00000E+00
 -0.87333E+02  0.46671E+02  0.00000E+00
 -0.87329E+02  0.46671E+02  0.00000E+00
 -0.87403E+02  0.46689E+02  0.00000E+00
 -0.87398E+02  0.46689E+02  0.00000E+00
 -0.87384E+02  0.46688E+02  0.00000E+00
 -0.87366E+02  0.46688E+02  0.00000E+00
 -0.87348E+02  0.46688E+02  0.00000E+00
 -0.87335E+02  0.46687E+02  0.00000E+00
 -0.87330E+02  0.46687E+02  0.00000E+00
 -0.87413E+02  0.46705E+02  0.00000E+00
 -0.87408E+02  0.46705E+02  0.00000E+00
 -0.87393E+02  0.46706E+02  0.00000E+00
 -0.87372E+02  0.46707E+02  0.00000E+00
 -0.87351E+02  0.46709E+02  0.00000E+00
 -0.87336E+02  0.46710E+02  0.00000E+00
 -0.87331E+02  0.46710E+02  0.00000E+00
 -0.87424E+02  0.46721E+02  0.00000E+00
 -0.87418E+02  0.46722E+02  0.00000E+00
 -0.87401E+02  0.46724E+02  0.00000E+00
 -0.87378E+02  0.46727E+02  0.00000E+00
 -0.87355E+02  0.46730E+02  0.00000E+00
 -0.87338E+02  0.46732E+02  0.00000E+00
 -0.87332E+02  0.46732E+02  0.00000E+00
 -0.87432E+02  0.46734E+02  0.00000E+00
 -0.87425E+02  0.46735E+02  0.00000E+00
 -0.87407E+02  0.46737E+02  0.00000E+00
 -0.87382E+02  0.46741E+02  0.00000E+00
 -0.87358E+02  0.46745E+02  0.00000E+00
 -0.87339E+02  0.46748E+02  0.00000E+00
 -0.87333E+02  0.46749E+02  0.00000E+00
 -0.87435E+02  0.46738E+02  0.00000E+00
 -0.87428E+02  0.46739E+02  0.00000E+00
 -0.87409E+02  0.46742E+02  0.00000E+00
 -0.87384E+02  0.46746E+02  0.00000E+00
 -0.87358E+02  0.46751E+02  0.00000E+00
 -0.87340E+02  0.46754E+02  0.00000E+00
 -0.87333E+02  0.46755E+02  0.00000E+00
 ZONE I=           7 ,J=           7 , F=POINT
 -0.87329E+02  0.46665E+02  0.00000E+00
 -0.87322E+02  0.46663E+02  0.00000E+00
 -0.87303E+02  0.46660E+02  0.00000E+00
 -0.87278E+02  0.46655E+02  0.00000E+00
 -0.87253E+02  0.46650E+02  0.00000E+00
 -0.87234E+02  0.46647E+02  0.00000E+00
 -0.87228E+02  0.46646E+02  0.00000E+00
 -0.87329E+02  0.46671E+02  0.00000E+00
 -0.87322E+02  0.46670E+02  0.00000E+00
 -0.87304E+02  0.46666E+02  0.00000E+00
 -0.87279E+02  0.46662E+02  0.00000E+00
 -0.87253E+02  0.46658E+02  0.00000E+00
 -0.87235E+02  0.46654E+02  0.00000E+00
 -0.87228E+02  0.46653E+02  0.00000E+00
 -0.87330E+02  0.46687E+02  0.00000E+00
 -0.87323E+02  0.46686E+02  0.00000E+00
 -0.87305E+02  0.46684E+02  0.00000E+00
 -0.87280E+02  0.46681E+02  0.00000E+00
 -0.87255E+02  0.46677E+02  0.00000E+00
 -0.87236E+02  0.46675E+02  0.00000E+00
 -0.87230E+02  0.46674E+02  0.00000E+00
 -0.87331E+02  0.46710E+02  0.00000E+00
 -0.87324E+02  0.46709E+02  0.00000E+00
 -0.87306E+02  0.46708E+02  0.00000E+00
 -0.87281E+02  0.46706E+02  0.00000E+00
 -0.87257E+02  0.46704E+02  0.00000E+00
 -0.87239E+02  0.46702E+02  0.00000E+00
 -0.87232E+02  0.46702E+02  0.00000E+00
 -0.87332E+02  0.46732E+02  0.00000E+00
 -0.87325E+02  0.46732E+02  0.00000E+00
 -0.87307E+02  0.46732E+02  0.00000E+00
 -0.87283E+02  0.46731E+02  0.00000E+00
 -0.87259E+02  0.46731E+02  0.00000E+00
 -0.87241E+02  0.46730E+02  0.00000E+00
 -0.87234E+02  0.46730E+02  0.00000E+00
 -0.87333E+02  0.46749E+02  0.00000E+00
 -0.87326E+02  0.46749E+02  0.00000E+00
 -0.87308E+02  0.46749E+02  0.00000E+00
 -0.87284E+02  0.46750E+02  0.00000E+00
 -0.87260E+02  0.46750E+02  0.00000E+00
 -0.87242E+02  0.46751E+02  0.00000E+00
 -0.87236E+02  0.46751E+02  0.00000E+00
 -0.87333E+02  0.46755E+02  0.00000E+00
 -0.87327E+02  0.46755E+02  0.00000E+00
 -0.87309E+02  0.46756E+02  0.00000E+00