 VARIABLES = "X", "Y", "Z"
 ZONE F=FEPOINT, ET=QUADRILATERAL, N=        1496 E=        1339
  -87.177960624701640        46.585220137780745        0.0000000000000000     
  -87.112201717262266        46.587089906001317        0.0000000000000000     
  -87.019404212011793        46.583256753719589        0.0000000000000000     
  -86.919749160549273        46.577935090264091        0.0000000000000000     
  -86.816619659000779        46.575517573625305        0.0000000000000000     
  -86.712499312148481        46.578850828079617        0.0000000000000000     
  -86.610759933426124        46.587861349310138        0.0000000000000000     
  -86.514288200108979        46.599081588987197        0.0000000000000000     
  -86.426679855445997        46.606798943964222        0.0000000000000000     
  -86.365616692595736        46.606235154545878        0.0000000000000000     
  -84.882292446896116        46.590035479815093        0.0000000000000000     
  -84.820208849709246        46.588991859852754        0.0000000000000000     
  -84.732520878198997        46.582631975395806        0.0000000000000000     
  -84.631378402928803        46.574611776541509        0.0000000000000000     
  -84.550889002848422        46.608896546851675        0.0000000000000000     
  -87.391173134546747        46.672101598313766        0.0000000000000000     
  -87.327711659817666        46.664607551403783        0.0000000000000000     
  -87.226658227327604        46.645471301733700        0.0000000000000000     
  -87.123723370169117        46.669597575884374        0.0000000000000000     
  -87.027983317199684        46.673925838138103        0.0000000000000000     
  -86.929226581487384        46.673893681407769        0.0000000000000000     
  -86.828398709810656        46.673996133128604        0.0000000000000000     
  -86.727020435710656        46.676181095199446        0.0000000000000000     
  -86.626719782986498        46.680359789544255        0.0000000000000000     
  -86.528712844677941        46.684354843175420        0.0000000000000000     
  -86.432671149367394        46.683532795140607        0.0000000000000000     
  -86.323816769421910        46.663123776606170        0.0000000000000000     
  -86.212274978411415        46.682621794276429        0.0000000000000000     
  -86.115604600582486        46.693009476911755        0.0000000000000000     
  -86.028370471383994        46.696026572414524        0.0000000000000000     
  -85.968833794672179        46.690404086328506        0.0000000000000000     
  -85.179753534304382        46.682466203435617        0.0000000000000000     
  -85.119311609411469        46.683623741220629        0.0000000000000000     
  -85.034192638870536        46.674815707723255        0.0000000000000000     
  -84.931237159674311        46.653673413480078        0.0000000000000000     
  -84.832410484580834        46.676386804924945        0.0000000000000000     
  -84.742605793053556        46.681889651503482        0.0000000000000000     
  -84.654979816587542        46.689368912538967        0.0000000000000000     
  -84.575395623474378        46.705319907158938        0.0000000000000000     
  -91.842741903860045        46.769980858042636        0.0000000000000000     
  -91.736673986936466        46.785608400644165        0.0000000000000000     
  -91.661325080362658        46.783972386942793        0.0000000000000000     
  -90.734723781928537        46.792105821377774        0.0000000000000000     
  -90.656601905834094        46.777906715735845        0.0000000000000000     
  -90.550664932353115        46.769974120867076        0.0000000000000000     
  -90.447087846386523        46.772942833223965        0.0000000000000000     
  -90.346369887371537        46.779919573315759        0.0000000000000000     
  -90.247088495453028        46.788674263055071        0.0000000000000000     
  -90.150220710945177        46.797250479645804        0.0000000000000000     
  -90.059772040201267        46.802208491332827        0.0000000000000000     
  -89.996966983115129        46.799713371280930        0.0000000000000000     
  -87.509482750393744        46.755158531885648        0.0000000000000000     
  -87.433865662888323        46.737773967425206        0.0000000000000000     
  -87.331977399502748        46.754944782164458        0.0000000000000000     
  -87.234935696369206        46.758489244000877        0.0000000000000000     
  -87.135869473253521        46.763733557836979        0.0000000000000000     
  -87.037077759493002        46.768332402001228        0.0000000000000000     
  -86.937943131540536        46.770033984915834        0.0000000000000000     
  -86.837912768246596        46.770965626348143        0.0000000000000000     
  -86.737517160889297        46.772301716445192        0.0000000000000000     
  -86.637396123864093        46.774047214597360        0.0000000000000000     
  -86.537671291984253        46.775080237505414        0.0000000000000000     
  -86.436845235308908        46.773496039403980        0.0000000000000000     
  -86.333485502731719        46.771937720442857        0.0000000000000000     
  -86.230127902506467        46.774729684128616        0.0000000000000000     
  -86.130550454441618        46.777780390898307        0.0000000000000000     
  -86.034583333308888        46.773391859734019        0.0000000000000000     
  -85.927179085526944        46.745079935452083        0.0000000000000000     
  -85.814088896403035        46.756983549439418        0.0000000000000000     
  -85.712857875234960        46.762121690212339        0.0000000000000000     
  -85.615525620400632        46.764476677712949        0.0000000000000000     
  -85.520634359736562        46.764153544015244        0.0000000000000000     
  -85.426072059313967        46.760997198740512        0.0000000000000000     
  -85.332111753868176        46.754790995504642        0.0000000000000000     
  -85.227669343429952        46.740484497216151        0.0000000000000000     
  -85.129083106023643        46.765985162805869        0.0000000000000000     
  -85.036521946047216        46.768680528365152        0.0000000000000000     
  -84.940512149386734        46.769195176409610        0.0000000000000000     
  -84.844870584095972        46.774744148909392        0.0000000000000000     
  -84.752973567320637        46.782580322012677        0.0000000000000000     
  -84.667328685484918        46.789379923619002        0.0000000000000000     
  -84.589258141728777        46.801912999018228        0.0000000000000000     
  -91.859115111223247        46.868603957502977        0.0000000000000000     
  -91.747273520532261        46.867950734211242        0.0000000000000000     
  -91.643119825966977        46.867440912918667        0.0000000000000000     
  -91.538267672505910        46.871060326887665        0.0000000000000000     
  -91.425158166155157        46.869816086673850        0.0000000000000000     
  -91.348536003347860        46.888076182423184        0.0000000000000000     
  -91.291959928632309        46.889091395576365        0.0000000000000000     
  -90.748019737873733        46.848816874939530        0.0000000000000000     
  -90.654104650085515        46.864616393239636        0.0000000000000000     
  -90.552915246430388        46.868074841855858        0.0000000000000000     
  -90.450646611725389        46.870959694046370        0.0000000000000000     
  -90.349703076116043        46.875155555265330        0.0000000000000000     
  -90.250283079561797        46.879681498851717        0.0000000000000000     
  -90.152680675503092        46.882652368087641        0.0000000000000000     
  -90.057173943282720        46.880143724531287        0.0000000000000000     
  -89.952131601017257        46.857110145620496        0.0000000000000000     
  -89.842613022557202        46.876889061026674        0.0000000000000000     
  -89.746378141004470        46.890817275184133        0.0000000000000000     
  -89.657156996332574        46.900406287171947        0.0000000000000000     
  -89.594936735519639        46.901292058942587        0.0000000000000000     
  -87.785571843515157        46.883224488532079        0.0000000000000000     
  -87.728989022950756        46.879586783782173        0.0000000000000000     
  -87.648596944062817        46.863298433804786        0.0000000000000000     
  -87.548639309438954        46.830317559644079        0.0000000000000000     
  -87.440438451269500        46.848303803273666        0.0000000000000000     
  -87.341254288554609        46.854799573329103        0.0000000000000000     
  -87.242188580680590        46.859880660755344        0.0000000000000000     
  -87.143222312892988        46.863361064412118        0.0000000000000000     
  -87.044005249748864        46.865943415850822        0.0000000000000000     
  -86.944489310777158        46.867488449299437        0.0000000000000000     
  -86.844602415465417        46.868393015281200        0.0000000000000000     
  -86.744476762353543        46.869163280953977        0.0000000000000000     
  -86.644281997425452        46.869859079002580        0.0000000000000000     
  -86.543909881205252        46.870136258407236        0.0000000000000000     
  -86.442957010584394        46.869883115374989        0.0000000000000000     
  -86.341359119698041        46.869802759460221        0.0000000000000000     
  -86.239893169466384        46.870299485143754        0.0000000000000000     
  -86.139284473633253        46.869871482243028        0.0000000000000000     
  -86.038246269755646        46.865687993253786        0.0000000000000000     
  -85.934761575060406        46.860413343816312        0.0000000000000000     
  -85.830395769428577        46.859836115982716        0.0000000000000000     
  -85.728454058495956        46.862110828182900        0.0000000000000000     
  -85.629379832258394        46.863371076893159        0.0000000000000000     
  -85.531908525561249        46.863110772647659        0.0000000000000000     
  -85.434981082025530        46.861273960992243        0.0000000000000000     
  -85.337191704420135        46.858238019719217        0.0000000000000000     
  -85.238203683093943        46.857904384081067        0.0000000000000000     
  -85.140031759246199        46.862685620225427        0.0000000000000000     
  -85.043499086532151        46.868026433293636        0.0000000000000000     
  -84.947440524926705        46.872479048895030        0.0000000000000000     
  -84.851625697364341        46.878460441708633        0.0000000000000000     
  -84.759400123830204        46.883766173674452        0.0000000000000000     
  -84.666968986086658        46.895430267484613        0.0000000000000000     
  -84.601916462533438        46.869685421845496        0.0000000000000000     
  -91.735878640055518        46.950665292271069        0.0000000000000000     
  -91.654465667086868        46.974192626290353        0.0000000000000000     
  -91.535905840355440        46.970986139904412        0.0000000000000000     
  -91.457418771117986        46.956658499058662        0.0000000000000000     
  -91.357880416527763        46.970657084601157        0.0000000000000000     
  -91.251282331043683        46.951448117506608        0.0000000000000000     
  -91.142406715235197        46.971552350687517        0.0000000000000000     
  -91.047015133077977        46.983127206230513        0.0000000000000000     
  -90.956766412465100        46.986997485159215        0.0000000000000000     
  -90.871717261056702        46.976960710283713        0.0000000000000000     
  -90.776832612114973        46.942242784831059        0.0000000000000000     
  -90.659049302439556        46.958891023247951        0.0000000000000000     
  -90.554777580370072        46.964918364842433        0.0000000000000000     
  -90.452676470420201        46.968196329815882        0.0000000000000000     
  -90.351738923373233        46.970902990474116        0.0000000000000000     
  -90.251839657749926        46.973080711172628        0.0000000000000000     
  -90.152698943954718        46.973747525356259        0.0000000000000000     
  -90.053014164323301        46.971342260638700        0.0000000000000000     
  -89.951354624149104        46.969201996746037        0.0000000000000000     
  -89.849518818017245        46.972692631746710        0.0000000000000000     
  -89.750806424099608        46.978450765322926        0.0000000000000000     
  -89.655552077780854        46.979051266012640        0.0000000000000000     
  -89.551043243413304        46.960042479786331        0.0000000000000000     
  -89.444040470127504        46.982299013937912        0.0000000000000000     
  -89.354549960760764        46.994798440613224        0.0000000000000000     
  -89.292479016899819        46.997797065007269        0.0000000000000000     
  -88.348336231594018        46.938955993195975        0.0000000000000000     
  -88.250363880076350        46.961909342830054        0.0000000000000000     
  -88.147788261248380        46.962462915910308        0.0000000000000000     
  -88.055347751416420        46.952726082749088        0.0000000000000000     
  -87.931904953775856        46.945546669740288        0.0000000000000000     
  -87.835833120362736        46.939304428895504        0.0000000000000000     
  -87.739023958561162        46.961694616055340        0.0000000000000000     
  -87.646309952728799        46.959486824940043        0.0000000000000000     
  -87.548343261118603        46.953785440797787        0.0000000000000000     
  -87.447402535721139        46.954260838286956        0.0000000000000000     
  -87.346927645889252        46.958155261398154        0.0000000000000000     
  -87.247346650278985        46.961262422054475        0.0000000000000000     
  -87.147904669976455        46.963573733792146        0.0000000000000000     
  -87.048368362043590        46.965161773617432        0.0000000000000000     
  -86.948646166830088        46.966168021028373        0.0000000000000000     
  -86.848730950437556        46.966782964421370        0.0000000000000000     
  -86.748663489467447        46.967201052999741        0.0000000000000000     
  -86.648471901172101        46.967490269251861        0.0000000000000000     
  -86.548103095307312        46.967617327682007        0.0000000000000000     
  -86.447471960927686        46.967616972630843        0.0000000000000000     
  -86.346626088635318        46.967615594126464        0.0000000000000000     
  -86.245770187842680        46.967514149557381        0.0000000000000000     
  -86.144939887726721        46.966757092180920        0.0000000000000000     
  -86.043752157816115        46.965035247093248        0.0000000000000000     
  -85.941936649440080        46.963258764146296        0.0000000000000000     
  -85.840045968102046        46.962658866348029        0.0000000000000000     
  -85.739036284686918        46.963115764390125        0.0000000000000000     
  -85.639291580887715        46.963592649557803        0.0000000000000000     
  -85.540488254692292        46.963445937222914        0.0000000000000000     
  -85.442038543295752        46.962677007056058        0.0000000000000000     
  -85.343471534389423        46.961977923839456        0.0000000000000000     
  -85.244835415251359        46.962604136905341        0.0000000000000000     
  -85.146700258929130        46.965202474250923        0.0000000000000000     
  -85.049523822791429        46.969374478217127        0.0000000000000000     
  -84.953277586465234        46.975073045893375        0.0000000000000000     
  -84.857202816127270        46.983156328363911        0.0000000000000000     
  -84.753461495071591        46.994995408495399        0.0000000000000000     
  -84.693114133881593        46.962694837072810        0.0000000000000000     
  -91.542782580730290        47.031723567461576        0.0000000000000000     
  -91.468864138602811        47.052503892693309        0.0000000000000000     
  -91.369238229329568        47.086966629620967        0.0000000000000000     
  -91.254544601448345        47.071394387454106        0.0000000000000000     
  -91.152194610903081        47.072133303844396        0.0000000000000000     
  -91.053366767854740        47.075797553533164        0.0000000000000000     
  -90.957756304352301        47.075857568009035        0.0000000000000000     
  -90.862390277238248        47.069238872032642        0.0000000000000000     
  -90.763125469947298        47.061690552183549        0.0000000000000000     
  -90.659439873165383        47.060882625317909        0.0000000000000000     
  -90.555706653862771        47.063914507003211        0.0000000000000000     
  -90.453787232260808        47.066292898357972        0.0000000000000000     
  -90.352874180893195        47.068038308349742        0.0000000000000000     
  -90.252607890988784        47.069143791150758        0.0000000000000000     
  -90.152624606722554        47.069364079417902        0.0000000000000000     
  -90.052432806158777        47.068855688531876        0.0000000000000000     
  -89.951844821026526        47.068755165139933        0.0000000000000000     
  -89.851425681114833        47.069982891161573        0.0000000000000000     
  -89.751856582086972        47.071468402904841        0.0000000000000000     
  -89.652265004676309        47.070673728844589        0.0000000000000000     
  -89.551322514785028        47.069937441658134        0.0000000000000000     
  -89.451080970491248        47.073222985031762        0.0000000000000000     
  -89.354585391269637        47.074649704646120        0.0000000000000000     
  -89.250162956306355        47.056847540096413        0.0000000000000000     
  -89.148420734739631        47.076830846507491        0.0000000000000000     
  -89.084570798385613        47.081284751581009        0.0000000000000000     
  -88.218273407416490        47.050459674333226        0.0000000000000000     
  -88.155302735154208        47.009402191217973        0.0000000000000000     
  -88.091522760067619        47.059973517831004        0.0000000000000000     
  -87.973588057695025        47.038654956707447        0.0000000000000000     
  -87.856593553442110        47.052667316757173        0.0000000000000000     
  -87.751907924865250        47.059839464642728        0.0000000000000000     
  -87.650652315359537        47.061414261010498        0.0000000000000000     
  -87.550643711163659        47.060261355587663        0.0000000000000000     
  -87.450402748850678        47.060032098931991        0.0000000000000000     
  -87.350237592928295        47.061240363926217        0.0000000000000000     
  -87.250341161657289        47.062813799630511        0.0000000000000000     
  -87.150578656004527        47.064114034069860        0.0000000000000000     
  -87.050797168148080        47.065031713287588        0.0000000000000000     
  -86.950932368701260        47.065616740472599        0.0000000000000000     
  -86.850972205966755        47.065969271111399        0.0000000000000000     
  -86.750925336626437        47.066182011995402        0.0000000000000000     
  -86.650792887387169        47.066307038534994        0.0000000000000000     
  -86.550556529252304        47.066364952164186        0.0000000000000000     
  -86.450201154165057        47.066376047745138        0.0000000000000000     
  -86.349749184377998        47.066342716152043        0.0000000000000000     
  -86.249240125537597        47.066179556001075        0.0000000000000000     
  -86.148650966229098        47.065738772950461        0.0000000000000000     
  -86.047891329944733        47.065028273268823        0.0000000000000000     
  -85.946963370947202        47.064351422841398        0.0000000000000000     
  -85.846096417126887        47.064045013051114        0.0000000000000000     
  -85.745619123488510        47.064109072873030        0.0000000000000000     
  -85.645696334774740        47.064248918991886        0.0000000000000000     
  -85.546236102100238        47.064220820433874        0.0000000000000000     
  -85.447019249237925        47.064074128493452        0.0000000000000000     
  -85.347913467595788        47.064192288649558        0.0000000000000000     
  -85.249046897305519        47.065136338048852        0.0000000000000000     
  -85.150823002775937        47.067372841758797        0.0000000000000000     
  -85.053766881800826        47.071244335463007        0.0000000000000000     
  -84.958317249989577        47.077316264214936        0.0000000000000000     
  -84.864596185289685        47.086770207847316        0.0000000000000000     
  -84.776023532649489        47.102009356290075        0.0000000000000000     
  -91.334618521295923        47.162467291605573        0.0000000000000000     
  -91.259378691309848        47.181120974625934        0.0000000000000000     
  -91.155459713034162        47.170274419764660        0.0000000000000000     
  -91.057625381927622        47.173779974096561        0.0000000000000000     
  -90.957535617422494        47.172902158866393        0.0000000000000000     
  -90.857936887613391        47.168124763906157        0.0000000000000000     
  -90.758143872274829        47.164423860733109        0.0000000000000000     
  -90.657095037343069        47.163227359557268        0.0000000000000000     
  -90.555556417845850        47.164050927252504        0.0000000000000000     
  -90.454340350446017        47.165437739274942        0.0000000000000000     
  -90.353599987199615        47.166575846553307        0.0000000000000000     
  -90.253194642958420        47.167244966803409        0.0000000000000000     
  -90.152946079547149        47.167445767172666        0.0000000000000000     
  -90.052686620217386        47.167399154266327        0.0000000000000000     
  -89.952386077820606        47.167489701987016        0.0000000000000000     
  -89.852190115139635        47.167894550984904        0.0000000000000000     
  -89.752172056594532        47.168270333152307        0.0000000000000000     
  -89.652119299900136        47.168309249117534        0.0000000000000000     
  -89.551935443974259        47.168458539834930        0.0000000000000000     
  -89.452021102831196        47.168764577875599        0.0000000000000000     
  -89.352016182456765        47.167238904974674        0.0000000000000000     
  -89.251289746082307        47.164983200680219        0.0000000000000000     
  -89.151746522035722        47.163092795450900        0.0000000000000000     
  -89.043749863977524        47.145147711607542        0.0000000000000000     
  -88.941682287501223        47.168521449917286        0.0000000000000000     
  -88.877970303153504        47.174906893456722        0.0000000000000000     
  -88.154395272898910        47.136112215591581        0.0000000000000000     
  -88.080815525875934        47.154378574690497        0.0000000000000000     
  -87.977220695498573        47.142364327813333        0.0000000000000000     
  -87.875556205756055        47.168599333288135        0.0000000000000000     
  -87.759193431868582        47.165156006176083        0.0000000000000000     
  -87.654757983943512        47.164912010339805        0.0000000000000000     
  -87.552703194684497        47.163543637976922        0.0000000000000000     
  -87.452086406282277        47.163080594445759        0.0000000000000000     
  -87.351875718595636        47.163386872170065        0.0000000000000000     
  -87.251847884146912        47.164035340951578        0.0000000000000000     
  -87.151907906027631        47.164669536873916        0.0000000000000000     
  -87.051982865817834        47.165144146307064        0.0000000000000000     
  -86.952032373514882        47.165451202803524        0.0000000000000000     
  -86.852043073447035        47.165632463190335        0.0000000000000000     
  -86.752012811500208        47.165733618220955        0.0000000000000000     
  -86.651938684095484        47.165786339413586        0.0000000000000000     
  -86.551814315738667        47.165808432836265        0.0000000000000000     
  -86.451636532051950        47.165807524833077        0.0000000000000000     
  -86.351410539431356        47.165773593454766        0.0000000000000000     
  -86.251140396737824        47.165671067982721        0.0000000000000000     
  -86.150814501479530        47.165465641105392        0.0000000000000000     
  -86.050418864348558        47.165183784418851        0.0000000000000000     
  -85.949982969747012        47.164929076625512        0.0000000000000000     
  -85.849603703323496        47.164803528236234        0.0000000000000000     
  -85.749399005352601        47.164814465240184        0.0000000000000000     
  -85.649427414598634        47.164886317797112        0.0000000000000000     
  -85.549656132986570        47.164971328254921        0.0000000000000000     
  -85.450014508726113        47.165155094495148        0.0000000000000000     
  -85.350509441209624        47.165681955327749        0.0000000000000000     
  -85.251352998732997        47.166898038535848        0.0000000000000000     
  -85.153038648449211        47.169178680501332        0.0000000000000000     
  -85.056299115346761        47.172941253309070        0.0000000000000000     
  -84.962062951573159        47.178669760064324        0.0000000000000000     
  -84.871363215156251        47.187398728207540        0.0000000000000000     
  -84.783443457260901        47.200720901547491        0.0000000000000000     
  -91.225290536826876        47.244531895220973        0.0000000000000000     
  -91.164558612231943        47.256159494628740        0.0000000000000000     
  -91.065312281734705        47.286899721141523        0.0000000000000000     
  -90.954533022603641        47.271150869229984        0.0000000000000000     
  -90.854949996040872        47.266253715834708        0.0000000000000000     
  -90.755483611852696        47.263560077136326        0.0000000000000000     
  -90.655666359474964        47.263187943934753        0.0000000000000000     
  -90.555339699425886        47.263912682419544        0.0000000000000000     
  -90.454845290830363        47.265112652881378        0.0000000000000000     
  -90.354328294373076        47.266119749624146        0.0000000000000000     
  -90.253884993890949        47.266649818740191        0.0000000000000000     
  -90.153534142903169        47.266820478306080        0.0000000000000000     
  -90.053231288559957        47.266822444814096        0.0000000000000000     
  -89.952966327331026        47.266816232079798        0.0000000000000000     
  -89.852769005003523        47.266874831174562        0.0000000000000000     
  -89.752636666349886        47.266945078098679        0.0000000000000000     
  -89.652517690025093        47.266968355580232        0.0000000000000000     
  -89.552391742819836        47.266935201681612        0.0000000000000000     
  -89.452249970908653        47.266635957448109        0.0000000000000000     
  -89.351965854290995        47.265738328211917        0.0000000000000000     
  -89.251406527864276        47.264145290115863        0.0000000000000000     
  -89.149984466291954        47.261151399203470        0.0000000000000000     
  -89.047725903705967        47.259010901067448        0.0000000000000000     
  -88.947139597889802        47.258860768556865        0.0000000000000000     
  -88.837978786827861        47.243733841442108        0.0000000000000000     
  -88.732646348928995        47.275840135390617        0.0000000000000000     
  -88.644992672614194        47.296321939426377        0.0000000000000000     
  -88.581215476070255        47.306134929024189        0.0000000000000000     
  -87.978545430666330        47.272376873084518        0.0000000000000000     
  -87.853911252374004        47.257736451972555        0.0000000000000000     
  -87.765779796767831        47.276484115569609        0.0000000000000000     
  -87.655160746922903        47.266977783704604        0.0000000000000000     
  -87.553545375546918        47.264963300039199        0.0000000000000000     
  -87.452887403452578        47.264479402108229        0.0000000000000000     
  -87.352607165960407        47.264530006987130        0.0000000000000000     
  -87.252502423232428        47.264786700352424        0.0000000000000000     
  -87.152479363006506        47.265068760682610        0.0000000000000000     
  -87.052486058488384        47.265291217523796        0.0000000000000000     
  -86.952494573743053        47.265437508813832        0.0000000000000000     
  -86.852492578331280        47.265522726605134        0.0000000000000000     
  -86.752475194657748        47.265568091748371        0.0000000000000000     
  -86.652439337228884        47.265590203206784        0.0000000000000000     
  -86.552382177057183        47.265599073389012        0.0000000000000000     
  -86.452302401226746        47.265597981595796        0.0000000000000000     
  -86.352200609501551        47.265581912874197        0.0000000000000000     
  -86.252076819516034        47.265539167258972        0.0000000000000000     
  -86.151929331959209        47.265463044710216        0.0000000000000000     
  -86.051761621973156        47.265367872749863        0.0000000000000000     
  -85.951594082754625        47.265289599909963        0.0000000000000000     
  -85.851465203328644        47.265262961587560        0.0000000000000000     
  -85.751412479269177        47.265299205824959        0.0000000000000000     
  -85.651445580052211        47.265397923846059        0.0000000000000000     
  -85.551537535790075        47.265596144568299        0.0000000000000000     
  -85.451652991768910        47.266019929333140        0.0000000000000000     
  -85.351824827533434        47.266891884875911        0.0000000000000000     