  TITLE = "SEM Quad mesh" 
  VARIABLES = "x","y", "z"
 ZONE I=           7 ,J=           7 , F=POINT
  0.60901E+01  0.26880E+01  0.00000E+00
  0.63353E+01  0.25427E+01  0.00000E+00
  0.70052E+01  0.21457E+01  0.00000E+00
  0.79202E+01  0.16034E+01  0.00000E+00
  0.88353E+01  0.10610E+01  0.00000E+00
  0.95051E+01  0.66402E+00  0.00000E+00
  0.97503E+01  0.51871E+00  0.00000E+00
  0.62208E+01  0.29339E+01  0.00000E+00
  0.64589E+01  0.27891E+01  0.00000E+00
  0.71094E+01  0.23937E+01  0.00000E+00
  0.79980E+01  0.18536E+01  0.00000E+00
  0.88865E+01  0.13134E+01  0.00000E+00
  0.95370E+01  0.91798E+00  0.00000E+00
  0.97751E+01  0.77325E+00  0.00000E+00
  0.65778E+01  0.36055E+01  0.00000E+00
  0.67965E+01  0.34623E+01  0.00000E+00
  0.73941E+01  0.30713E+01  0.00000E+00
  0.82103E+01  0.25371E+01  0.00000E+00
  0.90266E+01  0.20029E+01  0.00000E+00
  0.96242E+01  0.16118E+01  0.00000E+00
  0.98429E+01  0.14687E+01  0.00000E+00
  0.70655E+01  0.45229E+01  0.00000E+00
  0.72577E+01  0.43819E+01  0.00000E+00
  0.77830E+01  0.39968E+01  0.00000E+00
  0.85005E+01  0.34708E+01  0.00000E+00
  0.92180E+01  0.29447E+01  0.00000E+00
  0.97432E+01  0.25596E+01  0.00000E+00
  0.99354E+01  0.24186E+01  0.00000E+00
  0.75532E+01  0.54403E+01  0.00000E+00
  0.77189E+01  0.53016E+01  0.00000E+00
  0.81719E+01  0.49224E+01  0.00000E+00
  0.87906E+01  0.44045E+01  0.00000E+00
  0.94093E+01  0.38865E+01  0.00000E+00
  0.98622E+01  0.35074E+01  0.00000E+00
  0.10028E+02  0.33686E+01  0.00000E+00
  0.79102E+01  0.61119E+01  0.00000E+00
  0.80566E+01  0.59748E+01  0.00000E+00
  0.84566E+01  0.56000E+01  0.00000E+00
  0.90030E+01  0.50880E+01  0.00000E+00
  0.95494E+01  0.45760E+01  0.00000E+00
  0.99494E+01  0.42012E+01  0.00000E+00
  0.10096E+02  0.40640E+01  0.00000E+00
  0.80408E+01  0.63578E+01  0.00000E+00
  0.81802E+01  0.62212E+01  0.00000E+00
  0.85608E+01  0.58480E+01  0.00000E+00
  0.90807E+01  0.53382E+01  0.00000E+00
  0.96006E+01  0.48284E+01  0.00000E+00
  0.99812E+01  0.44552E+01  0.00000E+00
  0.10121E+02  0.43186E+01  0.00000E+00
 ZONE I=           7 ,J=           7 , F=POINT
 -0.47890E+01 -0.12403E+02  0.00000E+00
 -0.47348E+01 -0.12405E+02  0.00000E+00
 -0.45867E+01 -0.12411E+02  0.00000E+00
 -0.43844E+01 -0.12418E+02  0.00000E+00
 -0.41820E+01 -0.12426E+02  0.00000E+00
 -0.40339E+01 -0.12432E+02  0.00000E+00
 -0.39797E+01 -0.12434E+02  0.00000E+00
 -0.48240E+01 -0.12350E+02  0.00000E+00
 -0.47674E+01 -0.12351E+02  0.00000E+00
 -0.46129E+01 -0.12354E+02  0.00000E+00
 -0.44018E+01 -0.12358E+02  0.00000E+00
 -0.41908E+01 -0.12361E+02  0.00000E+00
 -0.40363E+01 -0.12364E+02  0.00000E+00
 -0.39797E+01 -0.12365E+02  0.00000E+00
 -0.49196E+01 -0.12205E+02  0.00000E+00
 -0.48566E+01 -0.12203E+02  0.00000E+00
 -0.46846E+01 -0.12198E+02  0.00000E+00
 -0.44496E+01 -0.12191E+02  0.00000E+00
 -0.42147E+01 -0.12184E+02  0.00000E+00
 -0.40426E+01 -0.12179E+02  0.00000E+00
 -0.39797E+01 -0.12177E+02  0.00000E+00
 -0.50502E+01 -0.12007E+02  0.00000E+00
 -0.49785E+01 -0.12001E+02  0.00000E+00
 -0.47826E+01 -0.11985E+02  0.00000E+00
 -0.45149E+01 -0.11964E+02  0.00000E+00
 -0.42473E+01 -0.11942E+02  0.00000E+00
 -0.40514E+01 -0.11926E+02  0.00000E+00
 -0.39797E+01 -0.11921E+02  0.00000E+00
 -0.51808E+01 -0.11809E+02  0.00000E+00
 -0.51004E+01 -0.11799E+02  0.00000E+00
 -0.48805E+01 -0.11772E+02  0.00000E+00
 -0.45802E+01 -0.11736E+02  0.00000E+00
 -0.42799E+01 -0.11700E+02  0.00000E+00
 -0.40601E+01 -0.11674E+02  0.00000E+00
 -0.39796E+01 -0.11664E+02  0.00000E+00
 -0.52764E+01 -0.11664E+02  0.00000E+00
 -0.51896E+01 -0.11651E+02  0.00000E+00
 -0.49522E+01 -0.11617E+02  0.00000E+00
 -0.46280E+01 -0.11570E+02  0.00000E+00
 -0.43038E+01 -0.11523E+02  0.00000E+00
 -0.40665E+01 -0.11489E+02  0.00000E+00
 -0.39796E+01 -0.11476E+02  0.00000E+00
 -0.53114E+01 -0.11611E+02  0.00000E+00
 -0.52222E+01 -0.11597E+02  0.00000E+00
 -0.49785E+01 -0.11560E+02  0.00000E+00
 -0.46455E+01 -0.11509E+02  0.00000E+00
 -0.43126E+01 -0.11458E+02  0.00000E+00
 -0.40688E+01 -0.11421E+02  0.00000E+00
 -0.39796E+01 -0.11407E+02  0.00000E+00
 ZONE I=           7 ,J=           7 , F=POINT
 -0.73446E+01 -0.11111E+02  0.00000E+00
 -0.72927E+01 -0.11121E+02  0.00000E+00
 -0.71508E+01 -0.11149E+02  0.00000E+00
 -0.69569E+01 -0.11187E+02  0.00000E+00
 -0.67630E+01 -0.11226E+02  0.00000E+00
 -0.66210E+01 -0.11253E+02  0.00000E+00
 -0.65691E+01 -0.11264E+02  0.00000E+00
 -0.73725E+01 -0.11056E+02  0.00000E+00
 -0.73183E+01 -0.11065E+02  0.00000E+00
 -0.71701E+01 -0.11090E+02  0.00000E+00
 -0.69677E+01 -0.11125E+02  0.00000E+00
 -0.67653E+01 -0.11159E+02  0.00000E+00
 -0.66171E+01 -0.11184E+02  0.00000E+00
 -0.65629E+01 -0.11193E+02  0.00000E+00
 -0.74487E+01 -0.10906E+02  0.00000E+00
 -0.73882E+01 -0.10912E+02  0.00000E+00
 -0.72230E+01 -0.10930E+02  0.00000E+00
 -0.69973E+01 -0.10953E+02  0.00000E+00
 -0.67715E+01 -0.10976E+02  0.00000E+00
 -0.66063E+01 -0.10993E+02  0.00000E+00
 -0.65458E+01 -0.11000E+02  0.00000E+00
 -0.75527E+01 -0.10701E+02  0.00000E+00
 -0.74837E+01 -0.10704E+02  0.00000E+00
 -0.72952E+01 -0.10710E+02  0.00000E+00
 -0.70377E+01 -0.10718E+02  0.00000E+00
 -0.67801E+01 -0.10727E+02  0.00000E+00
 -0.65916E+01 -0.10733E+02  0.00000E+00
 -0.65226E+01 -0.10736E+02  0.00000E+00
 -0.76568E+01 -0.10496E+02  0.00000E+00
 -0.75792E+01 -0.10495E+02  0.00000E+00
 -0.73674E+01 -0.10490E+02  0.00000E+00
 -0.70781E+01 -0.10484E+02  0.00000E+00
 -0.67887E+01 -0.10478E+02  0.00000E+00
 -0.65769E+01 -0.10473E+02  0.00000E+00
 -0.64993E+01 -0.10472E+02  0.00000E+00
 -0.77330E+01 -0.10346E+02  0.00000E+00
 -0.76492E+01 -0.10342E+02  0.00000E+00
 -0.74203E+01 -0.10329E+02  0.00000E+00
 -0.71076E+01 -0.10312E+02  0.00000E+00
 -0.67950E+01 -0.10295E+02  0.00000E+00
 -0.65661E+01 -0.10283E+02  0.00000E+00
 -0.64823E+01 -0.10278E+02  0.00000E+00
 -0.77608E+01 -0.10292E+02  0.00000E+00
 -0.76748E+01 -0.10286E+02  0.00000E+00
 -0.74396E+01 -0.10271E+02  0.00000E+00
 -0.71184E+01 -0.10250E+02  0.00000E+00
 -0.67973E+01 -0.10228E+02  0.00000E+00
 -0.65621E+01 -0.10213E+02  0.00000E+00
 -0.64761E+01 -0.10207E+02  0.00000E+00
 ZONE I=           7 ,J=           7 , F=POINT
 -0.86844E+01 -0.99787E+01  0.00000E+00
 -0.86225E+01 -0.99996E+01  0.00000E+00
 -0.84535E+01 -0.10057E+02  0.00000E+00
 -0.82226E+01 -0.10135E+02  0.00000E+00
 -0.79917E+01 -0.10213E+02  0.00000E+00
 -0.78227E+01 -0.10271E+02  0.00000E+00
 -0.77608E+01 -0.10292E+02  0.00000E+00
 -0.87081E+01 -0.99165E+01  0.00000E+00
 -0.86442E+01 -0.99356E+01  0.00000E+00
 -0.84697E+01 -0.99880E+01  0.00000E+00
 -0.82313E+01 -0.10060E+02  0.00000E+00
 -0.79929E+01 -0.10131E+02  0.00000E+00
 -0.78183E+01 -0.10184E+02  0.00000E+00
 -0.77545E+01 -0.10203E+02  0.00000E+00
 -0.87730E+01 -0.97465E+01  0.00000E+00
 -0.87036E+01 -0.97608E+01  0.00000E+00
 -0.85140E+01 -0.97998E+01  0.00000E+00
 -0.82550E+01 -0.98532E+01  0.00000E+00
 -0.79960E+01 -0.99065E+01  0.00000E+00
 -0.78065E+01 -0.99455E+01  0.00000E+00
 -0.77371E+01 -0.99598E+01  0.00000E+00
 -0.88615E+01 -0.95144E+01  0.00000E+00
 -0.87846E+01 -0.95220E+01  0.00000E+00
 -0.85745E+01 -0.95428E+01  0.00000E+00
 -0.82874E+01 -0.95712E+01  0.00000E+00
 -0.80004E+01 -0.95996E+01  0.00000E+00
 -0.77902E+01 -0.96204E+01  0.00000E+00
 -0.77133E+01 -0.96280E+01  0.00000E+00
 -0.89501E+01 -0.92822E+01  0.00000E+00
 -0.88656E+01 -0.92832E+01  0.00000E+00
 -0.86350E+01 -0.92857E+01  0.00000E+00
 -0.83198E+01 -0.92892E+01  0.00000E+00
 -0.80047E+01 -0.92927E+01  0.00000E+00
 -0.77740E+01 -0.92953E+01  0.00000E+00
 -0.76896E+01 -0.92962E+01  0.00000E+00
 -0.90149E+01 -0.91123E+01  0.00000E+00
 -0.89250E+01 -0.91084E+01  0.00000E+00
 -0.86792E+01 -0.90976E+01  0.00000E+00
 -0.83435E+01 -0.90828E+01  0.00000E+00
 -0.80079E+01 -0.90680E+01  0.00000E+00
 -0.77621E+01 -0.90572E+01  0.00000E+00
 -0.76722E+01 -0.90533E+01  0.00000E+00
 -0.90386E+01 -0.90501E+01  0.00000E+00
 -0.89467E+01 -0.90444E+01  0.00000E+00
 -0.86954E+01 -0.90287E+01  0.00000E+00
 -0.83522E+01 -0.90072E+01  0.00000E+00
 -0.80090E+01 -0.89858E+01  0.00000E+00
 -0.77578E+01 -0.89701E+01  0.00000E+00
 -0.76658E+01 -0.89644E+01  0.00000E+00
 ZONE I=           7 ,J=           7 , F=POINT
 -0.77608E+01 -0.10292E+02  0.00000E+00
 -0.76748E+01 -0.10286E+02  0.00000E+00
 -0.74396E+01 -0.10271E+02  0.00000E+00
 -0.71184E+01 -0.10250E+02  0.00000E+00
 -0.67973E+01 -0.10228E+02  0.00000E+00
 -0.65621E+01 -0.10213E+02  0.00000E+00
 -0.64761E+01 -0.10207E+02  0.00000E+00
 -0.77545E+01 -0.10203E+02  0.00000E+00
 -0.76687E+01 -0.10198E+02  0.00000E+00
 -0.74342E+01 -0.10184E+02  0.00000E+00
 -0.71140E+01 -0.10166E+02  0.00000E+00
 -0.67937E+01 -0.10147E+02  0.00000E+00
 -0.65593E+01 -0.10133E+02  0.00000E+00
 -0.64735E+01 -0.10128E+02  0.00000E+00
 -0.77371E+01 -0.99598E+01  0.00000E+00
 -0.76520E+01 -0.99566E+01  0.00000E+00
 -0.74194E+01 -0.99479E+01  0.00000E+00
 -0.71017E+01 -0.99361E+01  0.00000E+00
 -0.67841E+01 -0.99242E+01  0.00000E+00
 -0.65515E+01 -0.99155E+01  0.00000E+00
 -0.64664E+01 -0.99123E+01  0.00000E+00
 -0.77133E+01 -0.96280E+01  0.00000E+00
 -0.76291E+01 -0.96273E+01  0.00000E+00
 -0.73992E+01 -0.96253E+01  0.00000E+00
 -0.70850E+01 -0.96226E+01  0.00000E+00
 -0.67709E+01 -0.96199E+01  0.00000E+00
 -0.65409E+01 -0.96179E+01  0.00000E+00
 -0.64568E+01 -0.96172E+01  0.00000E+00
 -0.76896E+01 -0.92962E+01  0.00000E+00
 -0.76063E+01 -0.92979E+01  0.00000E+00
 -0.73789E+01 -0.93027E+01  0.00000E+00
 -0.70683E+01 -0.93091E+01  0.00000E+00
 -0.67577E+01 -0.93156E+01  0.00000E+00
 -0.65304E+01 -0.93203E+01  0.00000E+00
 -0.64471E+01 -0.93220E+01  0.00000E+00
 -0.76722E+01 -0.90533E+01  0.00000E+00
 -0.75896E+01 -0.90568E+01  0.00000E+00
 -0.73641E+01 -0.90665E+01  0.00000E+00
 -0.70561E+01 -0.90796E+01  0.00000E+00
 -0.67481E+01 -0.90928E+01  0.00000E+00
 -0.65226E+01 -0.91025E+01  0.00000E+00
 -0.64401E+01 -0.91060E+01  0.00000E+00
 -0.76658E+01 -0.89644E+01  0.00000E+00
 -0.75835E+01 -0.89686E+01  0.00000E+00
 -0.73587E+01 -0.89800E+01  0.00000E+00
 -0.70516E+01 -0.89956E+01  0.00000E+00
 -0.67446E+01 -0.90113E+01  0.00000E+00
 -0.65198E+01 -0.90227E+01  0.00000E+00
 -0.64375E+01 -0.90269E+01  0.00000E+00
 ZONE I=           7 ,J=           7 , F=POINT
 -0.65691E+01 -0.11264E+02  0.00000E+00
 -0.64848E+01 -0.11287E+02  0.00000E+00
 -0.62547E+01 -0.11350E+02  0.00000E+00
 -0.59403E+01 -0.11437E+02  0.00000E+00
 -0.56258E+01 -0.11524E+02  0.00000E+00
 -0.53957E+01 -0.11587E+02  0.00000E+00
 -0.53114E+01 -0.11611E+02  0.00000E+00
 -0.65629E+01 -0.11193E+02  0.00000E+00
 -0.64788E+01 -0.11215E+02  0.00000E+00
 -0.62492E+01 -0.11275E+02  0.00000E+00
 -0.59355E+01 -0.11356E+02  0.00000E+00
 -0.56219E+01 -0.11438E+02  0.00000E+00
 -0.53923E+01 -0.11498E+02  0.00000E+00
 -0.53082E+01 -0.11520E+02  0.00000E+00
 -0.65458E+01 -0.11000E+02  0.00000E+00
 -0.64623E+01 -0.11018E+02  0.00000E+00
 -0.62342E+01 -0.11068E+02  0.00000E+00
 -0.59227E+01 -0.11136E+02  0.00000E+00
 -0.56111E+01 -0.11203E+02  0.00000E+00
 -0.53830E+01 -0.11253E+02  0.00000E+00
 -0.52995E+01 -0.11271E+02  0.00000E+00
 -0.65226E+01 -0.10736E+02  0.00000E+00
 -0.64398E+01 -0.10749E+02  0.00000E+00
 -0.62138E+01 -0.10785E+02  0.00000E+00
 -0.59051E+01 -0.10834E+02  0.00000E+00
 -0.55963E+01 -0.10883E+02  0.00000E+00
 -0.53703E+01 -0.10919E+02  0.00000E+00
 -0.52876E+01 -0.10932E+02  0.00000E+00
 -0.64993E+01 -0.10472E+02  0.00000E+00
 -0.64173E+01 -0.10480E+02  0.00000E+00
 -0.61934E+01 -0.10502E+02  0.00000E+00
 -0.58875E+01 -0.10532E+02  0.00000E+00
 -0.55815E+01 -0.10563E+02  0.00000E+00
 -0.53576E+01 -0.10585E+02  0.00000E+00
 -0.52756E+01 -0.10593E+02  0.00000E+00
 -0.64823E+01 -0.10278E+02  0.00000E+00
 -0.64009E+01 -0.10283E+02  0.00000E+00
 -0.61784E+01 -0.10295E+02  0.00000E+00
 -0.58746E+01 -0.10312E+02  0.00000E+00
 -0.55707E+01 -0.10328E+02  0.00000E+00
 -0.53483E+01 -0.10340E+02  0.00000E+00
 -0.52669E+01 -0.10345E+02  0.00000E+00
 -0.64761E+01 -0.10207E+02  0.00000E+00
 -0.63948E+01 -0.10211E+02  0.00000E+00
 -0.61730E+01 -0.10219E+02  0.00000E+00
 -0.58699E+01 -0.10231E+02  0.00000E+00
 -0.55668E+01 -0.10242E+02  0.00000E+00
 -0.53449E+01 -0.10251E+02  0.00000E+00
 -0.52637E+01 -0.10254E+02  0.00000E+00
 ZONE I=           7 ,J=           7 , F=POINT
 -0.53114E+01 -0.11611E+02  0.00000E+00
 -0.52222E+01 -0.11597E+02  0.00000E+00
 -0.49785E+01 -0.11560E+02  0.00000E+00
 -0.46455E+01 -0.11509E+02  0.00000E+00
 -0.43126E+01 -0.11458E+02  0.00000E+00
 -0.40688E+01 -0.11421E+02  0.00000E+00
 -0.39796E+01 -0.11407E+02  0.00000E+00
 -0.53082E+01 -0.11520E+02  0.00000E+00
 -0.52194E+01 -0.11507E+02  0.00000E+00
 -0.49766E+01 -0.11472E+02  0.00000E+00
 -0.46450E+01 -0.11424E+02  0.00000E+00
 -0.43133E+01 -0.11377E+02  0.00000E+00
 -0.40706E+01 -0.11342E+02  0.00000E+00
 -0.39817E+01 -0.11329E+02  0.00000E+00
 -0.52995E+01 -0.11271E+02  0.00000E+00
 -0.52116E+01 -0.11261E+02  0.00000E+00
 -0.49715E+01 -0.11233E+02  0.00000E+00
 -0.46435E+01 -0.11194E+02  0.00000E+00
 -0.43154E+01 -0.11155E+02  0.00000E+00
 -0.40753E+01 -0.11126E+02  0.00000E+00
 -0.39874E+01 -0.11116E+02  0.00000E+00
 -0.52876E+01 -0.10932E+02  0.00000E+00
 -0.52010E+01 -0.10925E+02  0.00000E+00
 -0.49645E+01 -0.10905E+02  0.00000E+00
 -0.46414E+01 -0.10878E+02  0.00000E+00
 -0.43183E+01 -0.10852E+02  0.00000E+00
 -0.40818E+01 -0.10832E+02  0.00000E+00
 -0.39952E+01 -0.10825E+02  0.00000E+00
 -0.52756E+01 -0.10593E+02  0.00000E+00
 -0.51904E+01 -0.10589E+02  0.00000E+00
 -0.49575E+01 -0.10578E+02  0.00000E+00
 -0.46393E+01 -0.10563E+02  0.00000E+00
 -0.43212E+01 -0.10548E+02  0.00000E+00
 -0.40883E+01 -0.10537E+02  0.00000E+00
 -0.40030E+01 -0.10533E+02  0.00000E+00
 -0.52669E+01 -0.10345E+02  0.00000E+00
 -0.51826E+01 -0.10343E+02  0.00000E+00
 -0.49523E+01 -0.10339E+02  0.00000E+00
 -0.46378E+01 -0.10333E+02  0.00000E+00
 -0.43233E+01 -0.10326E+02  0.00000E+00
 -0.40930E+01 -0.10322E+02  0.00000E+00
 -0.40087E+01 -0.10320E+02  0.00000E+00
 -0.52637E+01 -0.10254E+02  0.00000E+00
 -0.51797E+01 -0.10253E+02  0.00000E+00
 -0.49505E+01 -0.10251E+02  0.00000E+00
 -0.46373E+01 -0.10248E+02  0.00000E+00
 -0.43240E+01 -0.10245E+02  0.00000E+00
 -0.40948E+01 -0.10243E+02  0.00000E+00
 -0.40108E+01 -0.10242E+02  0.00000E+00
 ZONE I=           7 ,J=           7 , F=POINT
 -0.64761E+01 -0.10207E+02  0.00000E+00
 -0.63948E+01 -0.10211E+02  0.00000E+00
 -0.61730E+01 -0.10219E+02  0.00000E+00
 -0.58699E+01 -0.10231E+02  0.00000E+00
 -0.55668E+01 -0.10242E+02  0.00000E+00
 -0.53449E+01 -0.10251E+02  0.00000E+00
 -0.52637E+01 -0.10254E+02  0.00000E+00
 -0.64735E+01 -0.10128E+02  0.00000E+00
 -0.63923E+01 -0.10131E+02  0.00000E+00
 -0.61707E+01 -0.10140E+02  0.00000E+00
 -0.58679E+01 -0.10152E+02  0.00000E+00
 -0.55650E+01 -0.10163E+02  0.00000E+00
 -0.53434E+01 -0.10172E+02  0.00000E+00
 -0.52622E+01 -0.10175E+02  0.00000E+00
 -0.64664E+01 -0.99123E+01  0.00000E+00
 -0.63855E+01 -0.99154E+01  0.00000E+00
 -0.61644E+01 -0.99237E+01  0.00000E+00
 -0.58624E+01 -0.99351E+01  0.00000E+00
 -0.55603E+01 -0.99465E+01  0.00000E+00
 -0.53392E+01 -0.99548E+01  0.00000E+00
 -0.52583E+01 -0.99579E+01  0.00000E+00
 -0.64568E+01 -0.96172E+01  0.00000E+00
 -0.63761E+01 -0.96202E+01  0.00000E+00
 -0.61558E+01 -0.96283E+01  0.00000E+00
 -0.58548E+01 -0.96395E+01  0.00000E+00
 -0.55539E+01 -0.96506E+01  0.00000E+00
 -0.53335E+01 -0.96588E+01  0.00000E+00
 -0.52529E+01 -0.96618E+01  0.00000E+00
 -0.64471E+01 -0.93220E+01  0.00000E+00
 -0.63668E+01 -0.93250E+01  0.00000E+00
 -0.61472E+01 -0.93329E+01  0.00000E+00
 -0.58473E+01 -0.93438E+01  0.00000E+00
 -0.55474E+01 -0.93547E+01  0.00000E+00
 -0.53279E+01 -0.93627E+01  0.00000E+00
 -0.52475E+01 -0.93656E+01  0.00000E+00
 -0.64401E+01 -0.91060E+01  0.00000E+00
 -0.63599E+01 -0.91089E+01  0.00000E+00
 -0.61409E+01 -0.91167E+01  0.00000E+00
 -0.58418E+01 -0.91274E+01  0.00000E+00
 -0.55427E+01 -0.91381E+01  0.00000E+00
 -0.53237E+01 -0.91460E+01  0.00000E+00
 -0.52436E+01 -0.91489E+01  0.00000E+00
 -0.64375E+01 -0.90269E+01  0.00000E+00
 -0.63574E+01 -0.90298E+01  0.00000E+00
 -0.61386E+01 -0.90376E+01  0.00000E+00
 -0.58398E+01 -0.90482E+01  0.00000E+00
 -0.55410E+01 -0.90589E+01  0.00000E+00
 -0.53222E+01 -0.90667E+01  0.00000E+00
 -0.52421E+01 -0.90695E+01  0.00000E+00
 ZONE I=           7 ,J=           7 , F=POINT
 -0.52637E+01 -0.10254E+02  0.00000E+00
 -0.51797E+01 -0.10253E+02  0.00000E+00
 -0.49505E+01 -0.10251E+02  0.00000E+00
 -0.46373E+01 -0.10248E+02  0.00000E+00
 -0.43240E+01 -0.10245E+02  0.00000E+00
 -0.40948E+01 -0.10243E+02  0.00000E+00
 -0.40108E+01 -0.10242E+02  0.00000E+00
 -0.52622E+01 -0.10175E+02  0.00000E+00
 -0.51785E+01 -0.10174E+02  0.00000E+00
 -0.49498E+01 -0.10171E+02  0.00000E+00
 -0.46373E+01 -0.10168E+02  0.00000E+00
 -0.43249E+01 -0.10164E+02  0.00000E+00
 -0.40961E+01 -0.10162E+02  0.00000E+00
 -0.40124E+01 -0.10161E+02  0.00000E+00
 -0.52583E+01 -0.99579E+01  0.00000E+00
 -0.51751E+01 -0.99566E+01  0.00000E+00
 -0.49479E+01 -0.99532E+01  0.00000E+00
 -0.46375E+01 -0.99485E+01  0.00000E+00
 -0.43271E+01 -0.99438E+01  0.00000E+00
 -0.40999E+01 -0.99403E+01  0.00000E+00
 -0.40167E+01 -0.99391E+01  0.00000E+00
 -0.52529E+01 -0.96618E+01  0.00000E+00
 -0.51705E+01 -0.96600E+01  0.00000E+00
 -0.49453E+01 -0.96553E+01  0.00000E+00
 -0.46377E+01 -0.96489E+01  0.00000E+00
 -0.43301E+01 -0.96425E+01  0.00000E+00
 -0.41049E+01 -0.96377E+01  0.00000E+00
 -0.40225E+01 -0.96360E+01  0.00000E+00
 -0.52475E+01 -0.93656E+01  0.00000E+00
 -0.51658E+01 -0.93635E+01  0.00000E+00
 -0.49427E+01 -0.93575E+01  0.00000E+00
 -0.46379E+01 -0.93493E+01  0.00000E+00
 -0.43332E+01 -0.93412E+01  0.00000E+00
 -0.41100E+01 -0.93352E+01  0.00000E+00
 -0.40284E+01 -0.93330E+01  0.00000E+00
 -0.52436E+01 -0.91489E+01  0.00000E+00
 -0.51625E+01 -0.91463E+01  0.00000E+00
 -0.49408E+01 -0.91394E+01  0.00000E+00
 -0.46381E+01 -0.91300E+01  0.00000E+00
 -0.43354E+01 -0.91206E+01  0.00000E+00
 -0.41138E+01 -0.91137E+01  0.00000E+00
 -0.40327E+01 -0.91112E+01  0.00000E+00
 -0.52421E+01 -0.90695E+01  0.00000E+00
 -0.51612E+01 -0.90669E+01  0.00000E+00
 -0.49402E+01 -0.90596E+01  0.00000E+00
 -0.46382E+01 -0.90497E+01  0.00000E+00
 -0.43362E+01 -0.90398E+01  0.00000E+00
 -0.41151E+01 -0.90326E+01  0.00000E+00
 -0.40342E+01 -0.90300E+01  0.00000E+00
 ZONE I=           7 ,J=           7 , F=POINT
 -0.39797E+01 -0.12434E+02  0.00000E+00
 -0.39017E+01 -0.12441E+02  0.00000E+00
 -0.36885E+01 -0.12460E+02  0.00000E+00
 -0.33973E+01 -0.12486E+02  0.00000E+00
 -0.31061E+01 -0.12511E+02  0.00000E+00
 -0.28929E+01 -0.12530E+02  0.00000E+00
 -0.28149E+01 -0.12537E+02  0.00000E+00
 -0.39797E+01 -0.12365E+02  0.00000E+00
 -0.39014E+01 -0.12372E+02  0.00000E+00
 -0.36875E+01 -0.12389E+02  0.00000E+00
 -0.33953E+01 -0.12413E+02  0.00000E+00
 -0.31031E+01 -0.12437E+02  0.00000E+00
 -0.28892E+01 -0.12454E+02  0.00000E+00
 -0.28110E+01 -0.12460E+02  0.00000E+00
 -0.39797E+01 -0.12177E+02  0.00000E+00
 -0.39007E+01 -0.12182E+02  0.00000E+00
 -0.36848E+01 -0.12196E+02  0.00000E+00
 -0.33899E+01 -0.12214E+02  0.00000E+00
 -0.30951E+01 -0.12233E+02  0.00000E+00
 -0.28792E+01 -0.12246E+02  0.00000E+00
 -0.28002E+01 -0.12251E+02  0.00000E+00
 -0.39797E+01 -0.11921E+02  0.00000E+00
 -0.38997E+01 -0.11924E+02  0.00000E+00
 -0.36811E+01 -0.11932E+02  0.00000E+00
 -0.33826E+01 -0.11943E+02  0.00000E+00
 -0.30840E+01 -0.11954E+02  0.00000E+00
 -0.28655E+01 -0.11962E+02  0.00000E+00
 -0.27855E+01 -0.11965E+02  0.00000E+00
 -0.39796E+01 -0.11664E+02  0.00000E+00
 -0.38987E+01 -0.11665E+02  0.00000E+00
 -0.36774E+01 -0.11668E+02  0.00000E+00
 -0.33752E+01 -0.11672E+02  0.00000E+00
 -0.30730E+01 -0.11676E+02  0.00000E+00
 -0.28518E+01 -0.11679E+02  0.00000E+00
 -0.27708E+01 -0.11680E+02  0.00000E+00
 -0.39796E+01 -0.11476E+02  0.00000E+00
 -0.38979E+01 -0.11476E+02  0.00000E+00
 -0.36747E+01 -0.11475E+02  0.00000E+00
 -0.33698E+01 -0.11473E+02  0.00000E+00
 -0.30649E+01 -0.11472E+02  0.00000E+00
 -0.28417E+01 -0.11471E+02  0.00000E+00
 -0.27600E+01 -0.11470E+02  0.00000E+00
 -0.39796E+01 -0.11407E+02  0.00000E+00
 -0.38976E+01 -0.11406E+02  0.00000E+00
 -0.36737E+01 -0.11404E+02  0.00000E+00
 -0.33678E+01 -0.11401E+02  0.00000E+00
 -0.30620E+01 -0.11397E+02  0.00000E+00
 -0.28380E+01 -0.11395E+02  0.00000E+00
 -0.27561E+01 -0.11394E+02  0.00000E+00
 ZONE I=           7 ,J=           7 , F=POINT
 -0.28149E+01 -0.12537E+02  0.00000E+00
 -0.27300E+01 -0.12542E+02  0.00000E+00
 -0.24982E+01 -0.12557E+02  0.00000E+00
 -0.21815E+01 -0.12576E+02  0.00000E+00
 -0.18648E+01 -0.12596E+02  0.00000E+00
 -0.16329E+01 -0.12611E+02  0.00000E+00
 -0.15481E+01 -0.12616E+02  0.00000E+00
 -0.28110E+01 -0.12460E+02  0.00000E+00
 -0.27262E+01 -0.12465E+02  0.00000E+00
 -0.24946E+01 -0.12479E+02  0.00000E+00
 -0.21783E+01 -0.12497E+02  0.00000E+00
 -0.18620E+01 -0.12516E+02  0.00000E+00
 -0.16305E+01 -0.12529E+02  0.00000E+00
 -0.15457E+01 -0.12534E+02  0.00000E+00
 -0.28002E+01 -0.12251E+02  0.00000E+00
 -0.27157E+01 -0.12255E+02  0.00000E+00
 -0.24850E+01 -0.12266E+02  0.00000E+00
 -0.21698E+01 -0.12281E+02  0.00000E+00
 -0.18546E+01 -0.12296E+02  0.00000E+00
 -0.16238E+01 -0.12307E+02  0.00000E+00
 -0.15393E+01 -0.12311E+02  0.00000E+00
 -0.27855E+01 -0.11965E+02  0.00000E+00
 -0.27014E+01 -0.11968E+02  0.00000E+00
 -0.24718E+01 -0.11976E+02  0.00000E+00
 -0.21580E+01 -0.11986E+02  0.00000E+00
 -0.18443E+01 -0.11996E+02  0.00000E+00
 -0.16147E+01 -0.12003E+02  0.00000E+00
 -0.15306E+01 -0.12006E+02  0.00000E+00
 -0.27708E+01 -0.11680E+02  0.00000E+00
 -0.26871E+01 -0.11681E+02  0.00000E+00
 -0.24586E+01 -0.11685E+02  0.00000E+00
 -0.21463E+01 -0.11690E+02  0.00000E+00
 -0.18341E+01 -0.11695E+02  0.00000E+00
 -0.16055E+01 -0.11699E+02  0.00000E+00
 -0.15219E+01 -0.11701E+02  0.00000E+00
 -0.27600E+01 -0.11470E+02  0.00000E+00
 -0.26766E+01 -0.11471E+02  0.00000E+00
 -0.24489E+01 -0.11472E+02  0.00000E+00
 -0.21378E+01 -0.11474E+02  0.00000E+00
 -0.18266E+01 -0.11476E+02  0.00000E+00
 -0.15989E+01 -0.11477E+02  0.00000E+00
 -0.15155E+01 -0.11477E+02  0.00000E+00
 -0.27561E+01 -0.11394E+02  0.00000E+00
 -0.26728E+01 -0.11394E+02  0.00000E+00
 -0.24453E+01 -0.11394E+02  0.00000E+00
 -0.21346E+01 -0.11395E+02  0.00000E+00
 -0.18239E+01 -0.11395E+02  0.00000E+00
 -0.15964E+01 -0.11395E+02  0.00000E+00
 -0.15132E+01 -0.11396E+02  0.00000E+00
 ZONE I=           7 ,J=           7 , F=POINT
 -0.15481E+01 -0.12616E+02  0.00000E+00
 -0.14588E+01 -0.12616E+02  0.00000E+00
 -0.12149E+01 -0.12618E+02  0.00000E+00
 -0.88180E+00 -0.12619E+02  0.00000E+00
 -0.54866E+00 -0.12621E+02  0.00000E+00
 -0.30479E+00 -0.12622E+02  0.00000E+00
 -0.21552E+00 -0.12622E+02  0.00000E+00
 -0.15457E+01 -0.12534E+02  0.00000E+00
 -0.14568E+01 -0.12534E+02  0.00000E+00
 -0.12138E+01 -0.12534E+02  0.00000E+00
 -0.88182E+00 -0.12533E+02  0.00000E+00
 -0.54986E+00 -0.12533E+02  0.00000E+00
 -0.30685E+00 -0.12532E+02  0.00000E+00
 -0.21790E+00 -0.12532E+02  0.00000E+00
 -0.15393E+01 -0.12311E+02  0.00000E+00
 -0.14513E+01 -0.12309E+02  0.00000E+00
 -0.12106E+01 -0.12304E+02  0.00000E+00
 -0.88187E+00 -0.12298E+02  0.00000E+00
 -0.55314E+00 -0.12291E+02  0.00000E+00
 -0.31249E+00 -0.12287E+02  0.00000E+00
 -0.22440E+00 -0.12285E+02  0.00000E+00
 -0.15306E+01 -0.12006E+02  0.00000E+00
 -0.14437E+01 -0.12002E+02  0.00000E+00
 -0.12063E+01 -0.11991E+02  0.00000E+00
 -0.88195E+00 -0.11976E+02  0.00000E+00
 -0.55761E+00 -0.11962E+02  0.00000E+00
 -0.32018E+00 -0.11951E+02  0.00000E+00
 -0.23328E+00 -0.11947E+02  0.00000E+00
 -0.15219E+01 -0.11701E+02  0.00000E+00
 -0.14362E+01 -0.11695E+02  0.00000E+00
 -0.12020E+01 -0.11678E+02  0.00000E+00
 -0.88202E+00 -0.11655E+02  0.00000E+00
 -0.56209E+00 -0.11632E+02  0.00000E+00
 -0.32788E+00 -0.11615E+02  0.00000E+00
 -0.24216E+00 -0.11609E+02  0.00000E+00
 -0.15155E+01 -0.11477E+02  0.00000E+00
 -0.14306E+01 -0.11470E+02  0.00000E+00
 -0.11988E+01 -0.11449E+02  0.00000E+00
 -0.88208E+00 -0.11420E+02  0.00000E+00
 -0.56537E+00 -0.11391E+02  0.00000E+00
 -0.33352E+00 -0.11370E+02  0.00000E+00
 -0.24866E+00 -0.11362E+02  0.00000E+00
 -0.15132E+01 -0.11396E+02  0.00000E+00
 -0.14286E+01 -0.11387E+02  0.00000E+00
 -0.11976E+01 -0.11365E+02  0.00000E+00
 -0.88210E+00 -0.11334E+02  0.00000E+00
 -0.56657E+00 -0.11303E+02  0.00000E+00
 -0.33558E+00 -0.11280E+02  0.00000E+00
 -0.25104E+00 -0.11272E+02  0.00000E+00
 ZONE I=           7 ,J=           7 , F=POINT
 -0.21552E+00 -0.12622E+02  0.00000E+00
 -0.12221E+00 -0.12622E+02  0.00000E+00
  0.13272E+00 -0.12620E+02  0.00000E+00
  0.48097E+00 -0.12617E+02  0.00000E+00
  0.82921E+00 -0.12614E+02  0.00000E+00
  0.10841E+01 -0.12612E+02  0.00000E+00
  0.11775E+01 -0.12611E+02  0.00000E+00
 -0.21790E+00 -0.12532E+02  0.00000E+00
 -0.12418E+00 -0.12531E+02  0.00000E+00
  0.13189E+00 -0.12527E+02  0.00000E+00
  0.48168E+00 -0.12521E+02  0.00000E+00
  0.83147E+00 -0.12516E+02  0.00000E+00
  0.10875E+01 -0.12512E+02  0.00000E+00
  0.11813E+01 -0.12510E+02  0.00000E+00
 -0.22440E+00 -0.12285E+02  0.00000E+00
 -0.12954E+00 -0.12281E+02  0.00000E+00
  0.12961E+00 -0.12272E+02  0.00000E+00
  0.48363E+00 -0.12259E+02  0.00000E+00
  0.83764E+00 -0.12247E+02  0.00000E+00
  0.10968E+01 -0.12237E+02  0.00000E+00
  0.11917E+01 -0.12234E+02  0.00000E+00
 -0.23328E+00 -0.11947E+02  0.00000E+00
 -0.13688E+00 -0.11941E+02  0.00000E+00
  0.12650E+00 -0.11924E+02  0.00000E+00
  0.48628E+00 -0.11902E+02  0.00000E+00
  0.84606E+00 -0.11879E+02  0.00000E+00
  0.11094E+01 -0.11863E+02  0.00000E+00
  0.12058E+01 -0.11857E+02  0.00000E+00
 -0.24216E+00 -0.11609E+02  0.00000E+00
 -0.14421E+00 -0.11601E+02  0.00000E+00
  0.12339E+00 -0.11577E+02  0.00000E+00
  0.48894E+00 -0.11544E+02  0.00000E+00
  0.85449E+00 -0.11512E+02  0.00000E+00
  0.11221E+01 -0.11488E+02  0.00000E+00
  0.12200E+01 -0.11479E+02  0.00000E+00
 -0.24866E+00 -0.11362E+02  0.00000E+00
 -0.14958E+00 -0.11351E+02  0.00000E+00
  0.12111E+00 -0.11322E+02  0.00000E+00
  0.49088E+00 -0.11283E+02  0.00000E+00
  0.86066E+00 -0.11243E+02  0.00000E+00
  0.11313E+01 -0.11214E+02  0.00000E+00
  0.12304E+01 -0.11203E+02  0.00000E+00
 -0.25104E+00 -0.11272E+02  0.00000E+00
 -0.15154E+00 -0.11260E+02  0.00000E+00
  0.12028E+00 -0.11229E+02  0.00000E+00
  0.49160E+00 -0.11187E+02  0.00000E+00
  0.86291E+00 -0.11144E+02  0.00000E+00
  0.11347E+01 -0.11113E+02  0.00000E+00
  0.12342E+01 -0.11102E+02  0.00000E+00
 ZONE I=           7 ,J=           7 , F=POINT
 -0.39796E+01 -0.11407E+02  0.00000E+00
 -0.38976E+01 -0.11406E+02  0.00000E+00
 -0.36737E+01 -0.11404E+02  0.00000E+00
 -0.33678E+01 -0.11401E+02  0.00000E+00
 -0.30620E+01 -0.11397E+02  0.00000E+00
 -0.28380E+01 -0.11395E+02  0.00000E+00
 -0.27561E+01 -0.11394E+02  0.00000E+00
 -0.39817E+01 -0.11329E+02  0.00000E+00
 -0.38995E+01 -0.11328E+02  0.00000E+00
 -0.36750E+01 -0.11325E+02  0.00000E+00
 -0.33682E+01 -0.11322E+02  0.00000E+00
 -0.30615E+01 -0.11318E+02  0.00000E+00
 -0.28370E+01 -0.11315E+02  0.00000E+00
 -0.27548E+01 -0.11314E+02  0.00000E+00
 -0.39874E+01 -0.11116E+02  0.00000E+00
 -0.39046E+01 -0.11115E+02  0.00000E+00
 -0.36784E+01 -0.11111E+02  0.00000E+00
 -0.33693E+01 -0.11106E+02  0.00000E+00
 -0.30603E+01 -0.11101E+02  0.00000E+00
 -0.28341E+01 -0.11098E+02  0.00000E+00
 -0.27513E+01 -0.11096E+02  0.00000E+00
 -0.39952E+01 -0.10825E+02  0.00000E+00
 -0.39116E+01 -0.10823E+02  0.00000E+00
 -0.36830E+01 -0.10818E+02  0.00000E+00
 -0.33708E+01 -0.10812E+02  0.00000E+00
 -0.30587E+01 -0.10805E+02  0.00000E+00
 -0.28301E+01 -0.10801E+02  0.00000E+00
 -0.27465E+01 -0.10799E+02  0.00000E+00
 -0.40030E+01 -0.10533E+02  0.00000E+00
 -0.39185E+01 -0.10531E+02  0.00000E+00
 -0.36877E+01 -0.10525E+02  0.00000E+00
 -0.33724E+01 -0.10517E+02  0.00000E+00
 -0.30570E+01 -0.10509E+02  0.00000E+00
 -0.28262E+01 -0.10503E+02  0.00000E+00
 -0.27417E+01 -0.10501E+02  0.00000E+00
 -0.40087E+01 -0.10320E+02  0.00000E+00
 -0.39236E+01 -0.10318E+02  0.00000E+00
 -0.36911E+01 -0.10311E+02  0.00000E+00
 -0.33735E+01 -0.10302E+02  0.00000E+00
 -0.30558E+01 -0.10293E+02  0.00000E+00
 -0.28233E+01 -0.10286E+02  0.00000E+00
 -0.27382E+01 -0.10283E+02  0.00000E+00
 -0.40108E+01 -0.10242E+02  0.00000E+00
 -0.39255E+01 -0.10240E+02  0.00000E+00
 -0.36923E+01 -0.10232E+02  0.00000E+00
 -0.33739E+01 -0.10223E+02  0.00000E+00
 -0.30554E+01 -0.10213E+02  0.00000E+00
 -0.28222E+01 -0.10206E+02  0.00000E+00
 -0.27369E+01 -0.10204E+02  0.00000E+00
 ZONE I=           7 ,J=           7 , F=POINT
 -0.27561E+01 -0.11394E+02  0.00000E+00
 -0.26728E+01 -0.11394E+02  0.00000E+00
 -0.24453E+01 -0.11394E+02  0.00000E+00
 -0.21346E+01 -0.11395E+02  0.00000E+00
 -0.18239E+01 -0.11395E+02  0.00000E+00
 -0.15964E+01 -0.11395E+02  0.00000E+00
 -0.15132E+01 -0.11396E+02  0.00000E+00
 -0.27548E+01 -0.11314E+02  0.00000E+00
 -0.26713E+01 -0.11314E+02  0.00000E+00
 -0.24431E+01 -0.11314E+02  0.00000E+00
 -0.21315E+01 -0.11314E+02  0.00000E+00
 -0.18198E+01 -0.11315E+02  0.00000E+00
 -0.15917E+01 -0.11315E+02  0.00000E+00
 -0.15081E+01 -0.11315E+02  0.00000E+00
 -0.27513E+01 -0.11096E+02  0.00000E+00
 -0.26671E+01 -0.11096E+02  0.00000E+00
 -0.24371E+01 -0.11096E+02  0.00000E+00
 -0.21229E+01 -0.11095E+02  0.00000E+00
 -0.18086E+01 -0.11094E+02  0.00000E+00
 -0.15786E+01 -0.11094E+02  0.00000E+00
 -0.14944E+01 -0.11094E+02  0.00000E+00
 -0.27465E+01 -0.10799E+02  0.00000E+00
 -0.26614E+01 -0.10798E+02  0.00000E+00
 -0.24288E+01 -0.10797E+02  0.00000E+00
 -0.21111E+01 -0.10795E+02  0.00000E+00
 -0.17934E+01 -0.10794E+02  0.00000E+00
 -0.15608E+01 -0.10792E+02  0.00000E+00
 -0.14757E+01 -0.10792E+02  0.00000E+00
 -0.27417E+01 -0.10501E+02  0.00000E+00
 -0.26556E+01 -0.10500E+02  0.00000E+00
 -0.24205E+01 -0.10498E+02  0.00000E+00
 -0.20993E+01 -0.10496E+02  0.00000E+00
 -0.17781E+01 -0.10493E+02  0.00000E+00
 -0.15430E+01 -0.10491E+02  0.00000E+00
 -0.14570E+01 -0.10490E+02  0.00000E+00
 -0.27382E+01 -0.10283E+02  0.00000E+00
 -0.26514E+01 -0.10282E+02  0.00000E+00
 -0.24144E+01 -0.10280E+02  0.00000E+00
 -0.20907E+01 -0.10276E+02  0.00000E+00
 -0.17670E+01 -0.10273E+02  0.00000E+00
 -0.15300E+01 -0.10270E+02  0.00000E+00
 -0.14433E+01 -0.10269E+02  0.00000E+00
 -0.27369E+01 -0.10204E+02  0.00000E+00
 -0.26499E+01 -0.10203E+02  0.00000E+00
 -0.24122E+01 -0.10200E+02  0.00000E+00