  TITLE = "SEM hex mesh" 
  VARIABLES = "x","y", "z"
 ZONE I=           5 ,J=           5 ,K=           5 , F=POINT
   0.0000000000000000        2.0000000000000000        0.0000000000000000     
  0.14644660940672621        2.0000000000000000        0.0000000000000000     
  0.49999999999999994        2.0000000000000000        0.0000000000000000     
  0.85355339059327373        2.0000000000000000        0.0000000000000000     
   1.0000000000000000        2.0000000000000000        0.0000000000000000     
   0.0000000000000000        2.1464466094067260        0.0000000000000000     
  0.14644660940672616        2.1464466094067260        0.0000000000000000     
  0.49999999999999994        2.1464466094067260        0.0000000000000000     
  0.85355339059327373        2.1464466094067260        0.0000000000000000     
   1.0000000000000000        2.1464466094067260        0.0000000000000000     
   0.0000000000000000        2.5000000000000000        0.0000000000000000     
  0.14644660940672621        2.5000000000000000        0.0000000000000000     
  0.49999999999999983        2.5000000000000000        0.0000000000000000     
  0.85355339059327351        2.5000000000000000        0.0000000000000000     
   1.0000000000000000        2.5000000000000000        0.0000000000000000     
   0.0000000000000000        2.8535533905932735        0.0000000000000000     
  0.14644660940672621        2.8535533905932735        0.0000000000000000     
  0.49999999999999983        2.8535533905932731        0.0000000000000000     
  0.85355339059327373        2.8535533905932735        0.0000000000000000     
   1.0000000000000000        2.8535533905932735        0.0000000000000000     
   0.0000000000000000        3.0000000000000000        0.0000000000000000     
  0.14644660940672621        2.9999999999999996        0.0000000000000000     
  0.49999999999999994        3.0000000000000000        0.0000000000000000     
  0.85355339059327373        3.0000000000000000        0.0000000000000000     
   1.0000000000000000        3.0000000000000000        0.0000000000000000     
   0.0000000000000000        1.9941231706123932       0.15320829098575531     
  0.14644660940672621        1.9941231706123932       0.15320829098575531     
  0.49999999999999994        1.9941231706123932       0.15320829098575531     
  0.85355339059327373        1.9941231706123932       0.15320829098575531     
   1.0000000000000000        1.9941231706123932       0.15320829098575531     
   0.0000000000000000        2.1401394591501810       0.16442670835968679     
  0.14644660940672616        2.1401394591501810       0.16442670835968679     
  0.49999999999999994        2.1401394591501810       0.16442670835968679     
  0.85355339059327373        2.1401394591501810       0.16442670835968679     
   1.0000000000000000        2.1401394591501810       0.16442670835968679     
   0.0000000000000000        2.4926539632654916       0.19151036373219413     
  0.14644660940672621        2.4926539632654916       0.19151036373219413     
  0.49999999999999983        2.4926539632654916       0.19151036373219413     
  0.85355339059327351        2.4926539632654916       0.19151036373219413     
   1.0000000000000000        2.4926539632654916       0.19151036373219413     
   0.0000000000000000        2.8451684673808018       0.21859401910470147     
  0.14644660940672621        2.8451684673808018       0.21859401910470147     
  0.49999999999999983        2.8451684673808013       0.21859401910470141     
  0.85355339059327373        2.8451684673808018       0.21859401910470147     
   1.0000000000000000        2.8451684673808018       0.21859401910470147     
   0.0000000000000000        2.9911847559185896       0.22981243647863298     
  0.14644660940672621        2.9911847559185896       0.22981243647863292     
  0.49999999999999994        2.9911847559185896       0.22981243647863298     
  0.85355339059327373        2.9911847559185896       0.22981243647863298     
   1.0000000000000000        2.9911847559185896       0.22981243647863298     
   0.0000000000000000        1.9318516525781366       0.51763809020504137     
  0.14644660940672621        1.9318516525781366       0.51763809020504137     
  0.49999999999999994        1.9318516525781366       0.51763809020504137     
  0.85355339059327373        1.9318516525781366       0.51763809020504137     
   1.0000000000000000        1.9318516525781366       0.51763809020504137     
   0.0000000000000000        2.0733082147765609       0.55554126181019203     
  0.14644660940672616        2.0733082147765609       0.55554126181019203     
  0.49999999999999994        2.0733082147765609       0.55554126181019203     
  0.85355339059327373        2.0733082147765609       0.55554126181019203     
   1.0000000000000000        2.0733082147765609       0.55554126181019203     
   0.0000000000000000        2.4148145657226707       0.64704761275630174     
  0.14644660940672621        2.4148145657226707       0.64704761275630174     
  0.49999999999999983        2.4148145657226707       0.64704761275630174     
  0.85355339059327351        2.4148145657226707       0.64704761275630174     
   1.0000000000000000        2.4148145657226707       0.64704761275630174     
   0.0000000000000000        2.7563209166687801       0.73855396370241133     
  0.14644660940672621        2.7563209166687801       0.73855396370241133     
  0.49999999999999983        2.7563209166687797       0.73855396370241111     
  0.85355339059327373        2.7563209166687801       0.73855396370241133     
   1.0000000000000000        2.7563209166687801       0.73855396370241133     
   0.0000000000000000        2.8977774788672050       0.77645713530756200     
  0.14644660940672621        2.8977774788672046       0.77645713530756189     
  0.49999999999999994        2.8977774788672050       0.77645713530756200     
  0.85355339059327373        2.8977774788672050       0.77645713530756200     
   1.0000000000000000        2.8977774788672050       0.77645713530756200     
   0.0000000000000000        1.8035654695183807       0.86437931324213391     
  0.14644660940672621        1.8035654695183807       0.86437931324213391     
  0.49999999999999994        1.8035654695183807       0.86437931324213391     
  0.85355339059327373        1.8035654695183807       0.86437931324213391     
   1.0000000000000000        1.8035654695183807       0.86437931324213391     
   0.0000000000000000        1.9356284934453891       0.92767202307494634     
  0.14644660940672616        1.9356284934453891       0.92767202307494634     
  0.49999999999999994        1.9356284934453891       0.92767202307494634     
  0.85355339059327373        1.9356284934453891       0.92767202307494634     
   1.0000000000000000        1.9356284934453891       0.92767202307494634     
   0.0000000000000000        2.2544568368979760        1.0804741415526673     
  0.14644660940672621        2.2544568368979760        1.0804741415526673     
  0.49999999999999983        2.2544568368979760        1.0804741415526673     
  0.85355339059327351        2.2544568368979760        1.0804741415526673     
   1.0000000000000000        2.2544568368979760        1.0804741415526673     
   0.0000000000000000        2.5732851803505623        1.2332762600303881     
  0.14644660940672621        2.5732851803505623        1.2332762600303881     
  0.49999999999999983        2.5732851803505619        1.2332762600303879     
  0.85355339059327373        2.5732851803505623        1.2332762600303881     
   1.0000000000000000        2.5732851803505623        1.2332762600303881     
   0.0000000000000000        2.7053482042775712        1.2965689698632008     
  0.14644660940672621        2.7053482042775707        1.2965689698632006     
  0.49999999999999994        2.7053482042775712        1.2965689698632008     
  0.85355339059327373        2.7053482042775712        1.2965689698632008     
   1.0000000000000000        2.7053482042775712        1.2965689698632008     
   0.0000000000000000        1.7320508075688774       0.99999999999999989     
  0.14644660940672621        1.7320508075688774       0.99999999999999989     
  0.49999999999999994        1.7320508075688774       0.99999999999999989     
  0.85355339059327373        1.7320508075688774       0.99999999999999989     
   1.0000000000000000        1.7320508075688774       0.99999999999999989     
   0.0000000000000000        1.8588772916131993        1.0732233047033628     
  0.14644660940672616        1.8588772916131993        1.0732233047033628     
  0.49999999999999994        1.8588772916131993        1.0732233047033628     
  0.85355339059327373        1.8588772916131993        1.0732233047033628     
   1.0000000000000000        1.8588772916131993        1.0732233047033628     
   0.0000000000000000        2.1650635094610968        1.2499999999999998     
  0.14644660940672621        2.1650635094610968        1.2499999999999998     
  0.49999999999999983        2.1650635094610968        1.2499999999999998     
  0.85355339059327351        2.1650635094610968        1.2499999999999998     
   1.0000000000000000        2.1650635094610968        1.2499999999999998     
   0.0000000000000000        2.4712497273089937        1.4267766952966365     
  0.14644660940672621        2.4712497273089937        1.4267766952966365     
  0.49999999999999983        2.4712497273089933        1.4267766952966363     
  0.85355339059327373        2.4712497273089937        1.4267766952966365     
   1.0000000000000000        2.4712497273089937        1.4267766952966365     
   0.0000000000000000        2.5980762113533160        1.4999999999999998     
  0.14644660940672621        2.5980762113533156        1.4999999999999996     
  0.49999999999999994        2.5980762113533160        1.4999999999999998     
  0.85355339059327373        2.5980762113533160        1.4999999999999998     
   1.0000000000000000        2.5980762113533160        1.4999999999999998     
 ZONE I=           5 ,J=           5 ,K=           5 , F=POINT
   1.0000000000000000        2.0000000000000000        0.0000000000000000     
   1.1464466094067260        2.0000000000000000        0.0000000000000000     
   1.5000000000000000        2.0000000000000000        0.0000000000000000     
   1.8535533905932737        2.0000000000000000        0.0000000000000000     
   2.0000000000000000        2.0000000000000000        0.0000000000000000     
   1.0000000000000000        2.1464466094067260        0.0000000000000000     
   1.1464466094067260        2.1464466094067260        0.0000000000000000     
   1.5000000000000000        2.1464466094067260        0.0000000000000000     
   1.8535533905932733        2.1464466094067260        0.0000000000000000     
   2.0000000000000000        2.1464466094067260        0.0000000000000000     
   1.0000000000000000        2.5000000000000000        0.0000000000000000     
   1.1464466094067260        2.5000000000000000        0.0000000000000000     
   1.5000000000000000        2.5000000000000000        0.0000000000000000     
   1.8535533905932733        2.5000000000000000        0.0000000000000000     
   2.0000000000000000        2.5000000000000000        0.0000000000000000     
   1.0000000000000000        2.8535533905932735        0.0000000000000000     
   1.1464466094067260        2.8535533905932735        0.0000000000000000     
   1.5000000000000000        2.8535533905932731        0.0000000000000000     
   1.8535533905932737        2.8535533905932735        0.0000000000000000     
   2.0000000000000000        2.8535533905932735        0.0000000000000000     
   1.0000000000000000        3.0000000000000000        0.0000000000000000     
   1.1464466094067260        2.9999999999999996        0.0000000000000000     
   1.5000000000000000        3.0000000000000000        0.0000000000000000     
   1.8535533905932737        3.0000000000000000        0.0000000000000000     
   2.0000000000000000        3.0000000000000000        0.0000000000000000     
   1.0000000000000000        1.9941231706123932       0.15320829098575531     
   1.1464466094067260        1.9941231706123932       0.15320829098575531     
   1.5000000000000000        1.9941231706123932       0.15320829098575531     
   1.8535533905932737        1.9941231706123932       0.15320829098575531     
   2.0000000000000000        1.9941231706123932       0.15320829098575531     
   1.0000000000000000        2.1401394591501810       0.16442670835968679     
   1.1464466094067260        2.1401394591501810       0.16442670835968679     
   1.5000000000000000        2.1401394591501810       0.16442670835968679     
   1.8535533905932733        2.1401394591501810       0.16442670835968679     
   2.0000000000000000        2.1401394591501810       0.16442670835968679     
   1.0000000000000000        2.4926539632654916       0.19151036373219413     
   1.1464466094067260        2.4926539632654916       0.19151036373219413     
   1.5000000000000000        2.4926539632654916       0.19151036373219413     
   1.8535533905932733        2.4926539632654916       0.19151036373219413     
   2.0000000000000000        2.4926539632654916       0.19151036373219413     
   1.0000000000000000        2.8451684673808018       0.21859401910470147     
   1.1464466094067260        2.8451684673808018       0.21859401910470147     
   1.5000000000000000        2.8451684673808013       0.21859401910470141     
   1.8535533905932737        2.8451684673808018       0.21859401910470147     
   2.0000000000000000        2.8451684673808018       0.21859401910470147     
   1.0000000000000000        2.9911847559185896       0.22981243647863298     
   1.1464466094067260        2.9911847559185896       0.22981243647863292     
   1.5000000000000000        2.9911847559185896       0.22981243647863298     
   1.8535533905932737        2.9911847559185896       0.22981243647863298     
   2.0000000000000000        2.9911847559185896       0.22981243647863298     
   1.0000000000000000        1.9318516525781366       0.51763809020504137     
   1.1464466094067260        1.9318516525781366       0.51763809020504137     
   1.5000000000000000        1.9318516525781366       0.51763809020504137     
   1.8535533905932737        1.9318516525781366       0.51763809020504137     
   2.0000000000000000        1.9318516525781366       0.51763809020504137     
   1.0000000000000000        2.0733082147765609       0.55554126181019203     
   1.1464466094067260        2.0733082147765609       0.55554126181019203     
   1.5000000000000000        2.0733082147765609       0.55554126181019203     
   1.8535533905932733        2.0733082147765609       0.55554126181019203     
   2.0000000000000000        2.0733082147765609       0.55554126181019203     
   1.0000000000000000        2.4148145657226707       0.64704761275630174     
   1.1464466094067260        2.4148145657226707       0.64704761275630174     
   1.5000000000000000        2.4148145657226707       0.64704761275630174     
   1.8535533905932733        2.4148145657226707       0.64704761275630174     
   2.0000000000000000        2.4148145657226707       0.64704761275630174     
   1.0000000000000000        2.7563209166687801       0.73855396370241133     
   1.1464466094067260        2.7563209166687801       0.73855396370241133     
   1.5000000000000000        2.7563209166687797       0.73855396370241111     
   1.8535533905932737        2.7563209166687801       0.73855396370241133     
   2.0000000000000000        2.7563209166687801       0.73855396370241133     
   1.0000000000000000        2.8977774788672050       0.77645713530756200     
   1.1464466094067260        2.8977774788672046       0.77645713530756189     
   1.5000000000000000        2.8977774788672050       0.77645713530756200     
   1.8535533905932737        2.8977774788672050       0.77645713530756200     
   2.0000000000000000        2.8977774788672050       0.77645713530756200     
   1.0000000000000000        1.8035654695183807       0.86437931324213391     
   1.1464466094067260        1.8035654695183807       0.86437931324213391     
   1.5000000000000000        1.8035654695183807       0.86437931324213391     
   1.8535533905932737        1.8035654695183807       0.86437931324213391     
   2.0000000000000000        1.8035654695183807       0.86437931324213391     
   1.0000000000000000        1.9356284934453891       0.92767202307494634     
   1.1464466094067260        1.9356284934453891       0.92767202307494634     
   1.5000000000000000        1.9356284934453891       0.92767202307494634     
   1.8535533905932733        1.9356284934453891       0.92767202307494634     
   2.0000000000000000        1.9356284934453891       0.92767202307494634     
   1.0000000000000000        2.2544568368979760        1.0804741415526673     
   1.1464466094067260        2.2544568368979760        1.0804741415526673     
   1.5000000000000000        2.2544568368979760        1.0804741415526673     
   1.8535533905932733        2.2544568368979760        1.0804741415526673     
   2.0000000000000000        2.2544568368979760        1.0804741415526673     
   1.0000000000000000        2.5732851803505623        1.2332762600303881     
   1.1464466094067260        2.5732851803505623        1.2332762600303881     
   1.5000000000000000        2.5732851803505619        1.2332762600303879     
   1.8535533905932737        2.5732851803505623        1.2332762600303881     
   2.0000000000000000        2.5732851803505623        1.2332762600303881     
   1.0000000000000000        2.7053482042775712        1.2965689698632008     
   1.1464466094067260        2.7053482042775707        1.2965689698632006     
   1.5000000000000000        2.7053482042775712        1.2965689698632008     
   1.8535533905932737        2.7053482042775712        1.2965689698632008     
   2.0000000000000000        2.7053482042775712        1.2965689698632008     
   1.0000000000000000        1.7320508075688774       0.99999999999999989     
   1.1464466094067260        1.7320508075688774       0.99999999999999989     
   1.5000000000000000        1.7320508075688774       0.99999999999999989     
   1.8535533905932737        1.7320508075688774       0.99999999999999989     
   2.0000000000000000        1.7320508075688774       0.99999999999999989     
   1.0000000000000000        1.8588772916131993        1.0732233047033628     
   1.1464466094067260        1.8588772916131993        1.0732233047033628     
   1.5000000000000000        1.8588772916131993        1.0732233047033628     
   1.8535533905932733        1.8588772916131993        1.0732233047033628     
   2.0000000000000000        1.8588772916131993        1.0732233047033628     
   1.0000000000000000        2.1650635094610968        1.2499999999999998     
   1.1464466094067260        2.1650635094610968        1.2499999999999998     
   1.5000000000000000        2.1650635094610968        1.2499999999999998     
   1.8535533905932733        2.1650635094610968        1.2499999999999998     
   2.0000000000000000        2.1650635094610968        1.2499999999999998     
   1.0000000000000000        2.4712497273089937        1.4267766952966365     
   1.1464466094067260        2.4712497273089937        1.4267766952966365     
   1.5000000000000000        2.4712497273089933        1.4267766952966363     
   1.8535533905932737        2.4712497273089937        1.4267766952966365     
   2.0000000000000000        2.4712497273089937        1.4267766952966365     
   1.0000000000000000        2.5980762113533160        1.4999999999999998     
   1.1464466094067260        2.5980762113533156        1.4999999999999996     
   1.5000000000000000        2.5980762113533160        1.4999999999999998     
   1.8535533905932737        2.5980762113533160        1.4999999999999998     
   2.0000000000000000        2.5980762113533160        1.4999999999999998     
 ZONE I=           5 ,J=           5 ,K=           5 , F=POINT
   2.0000000000000000        2.0000000000000000        0.0000000000000000     
   2.1464466094067260        2.0000000000000000        0.0000000000000000     
   2.5000000000000000        2.0000000000000000        0.0000000000000000     
   2.8535533905932735        2.0000000000000000        0.0000000000000000     
   3.0000000000000000        2.0000000000000000        0.0000000000000000     
   2.0000000000000000        2.1464466094067260        0.0000000000000000     
   2.1464466094067260        2.1464466094067260        0.0000000000000000     
   2.5000000000000004        2.1464466094067260        0.0000000000000000     
   2.8535533905932726        2.1464466094067260        0.0000000000000000     
   3.0000000000000004        2.1464466094067260        0.0000000000000000     
   2.0000000000000000        2.5000000000000000        0.0000000000000000     
   2.1464466094067260        2.5000000000000000        0.0000000000000000     
   2.5000000000000000        2.5000000000000000        0.0000000000000000     
   2.8535533905932735        2.5000000000000000        0.0000000000000000     
   3.0000000000000000        2.5000000000000000        0.0000000000000000     
   2.0000000000000000        2.8535533905932735        0.0000000000000000     
   2.1464466094067260        2.8535533905932735        0.0000000000000000     
   2.5000000000000000        2.8535533905932731        0.0000000000000000     
   2.8535533905932735        2.8535533905932735        0.0000000000000000     
   3.0000000000000000        2.8535533905932735        0.0000000000000000     
   2.0000000000000000        3.0000000000000000        0.0000000000000000     
   2.1464466094067260        2.9999999999999996        0.0000000000000000     
   2.5000000000000000        3.0000000000000000        0.0000000000000000     
   2.8535533905932735        3.0000000000000000        0.0000000000000000     
   3.0000000000000000        3.0000000000000000        0.0000000000000000     
   2.0000000000000000        1.9941231706123932       0.15320829098575531     
   2.1464466094067260        1.9941231706123932       0.15320829098575531     
   2.5000000000000000        1.9941231706123932       0.15320829098575531     
   2.8535533905932735        1.9941231706123932       0.15320829098575531     
   3.0000000000000000        1.9941231706123932       0.15320829098575531     
   2.0000000000000000        2.1401394591501810       0.16442670835968679     
   2.1464466094067260        2.1401394591501810       0.16442670835968679     
   2.5000000000000004        2.1401394591501810       0.16442670835968679     
   2.8535533905932726        2.1401394591501810       0.16442670835968679     
   3.0000000000000004        2.1401394591501810       0.16442670835968679     
   2.0000000000000000        2.4926539632654916       0.19151036373219413     
   2.1464466094067260        2.4926539632654916       0.19151036373219413     
   2.5000000000000000        2.4926539632654916       0.19151036373219413     
   2.8535533905932735        2.4926539632654916       0.19151036373219413     
   3.0000000000000000        2.4926539632654916       0.19151036373219413     
   2.0000000000000000        2.8451684673808018       0.21859401910470147     
   2.1464466094067260        2.8451684673808018       0.21859401910470147     
   2.5000000000000000        2.8451684673808013       0.21859401910470141     
   2.8535533905932735        2.8451684673808018       0.21859401910470147     
   3.0000000000000000        2.8451684673808018       0.21859401910470147     
   2.0000000000000000        2.9911847559185896       0.22981243647863298     
   2.1464466094067260        2.9911847559185896       0.22981243647863292     
   2.5000000000000000        2.9911847559185896       0.22981243647863298     
   2.8535533905932735        2.9911847559185896       0.22981243647863298     
   3.0000000000000000        2.9911847559185896       0.22981243647863298     
   2.0000000000000000        1.9318516525781366       0.51763809020504137     
   2.1464466094067260        1.9318516525781366       0.51763809020504137     
   2.5000000000000000        1.9318516525781366       0.51763809020504137     
   2.8535533905932735        1.9318516525781366       0.51763809020504137     
   3.0000000000000000        1.9318516525781366       0.51763809020504137     
   2.0000000000000000        2.0733082147765609       0.55554126181019203     
   2.1464466094067260        2.0733082147765609       0.55554126181019203     
   2.5000000000000004        2.0733082147765609       0.55554126181019203     
   2.8535533905932726        2.0733082147765609       0.55554126181019203     
   3.0000000000000004        2.0733082147765609       0.55554126181019203     
   2.0000000000000000        2.4148145657226707       0.64704761275630174     
   2.1464466094067260        2.4148145657226707       0.64704761275630174     
   2.5000000000000000        2.4148145657226707       0.64704761275630174     
   2.8535533905932735        2.4148145657226707       0.64704761275630174     
   3.0000000000000000        2.4148145657226707       0.64704761275630174     
   2.0000000000000000        2.7563209166687801       0.73855396370241133     
   2.1464466094067260        2.7563209166687801       0.73855396370241133     
   2.5000000000000000        2.7563209166687797       0.73855396370241111     
   2.8535533905932735        2.7563209166687801       0.73855396370241133     
   3.0000000000000000        2.7563209166687801       0.73855396370241133     
   2.0000000000000000        2.8977774788672050       0.77645713530756200     
   2.1464466094067260        2.8977774788672046       0.77645713530756189     
   2.5000000000000000        2.8977774788672050       0.77645713530756200     
   2.8535533905932735        2.8977774788672050       0.77645713530756200     
   3.0000000000000000        2.8977774788672050       0.77645713530756200     
   2.0000000000000000        1.8035654695183807       0.86437931324213391     
   2.1464466094067260        1.8035654695183807       0.86437931324213391     
   2.5000000000000000        1.8035654695183807       0.86437931324213391     
   2.8535533905932735        1.8035654695183807       0.86437931324213391     
   3.0000000000000000        1.8035654695183807       0.86437931324213391     
   2.0000000000000000        1.9356284934453891       0.92767202307494634     
   2.1464466094067260        1.9356284934453891       0.92767202307494634     
   2.5000000000000004        1.9356284934453891       0.92767202307494634     
   2.8535533905932726        1.9356284934453891       0.92767202307494634     
   3.0000000000000004        1.9356284934453891       0.92767202307494634     
   2.0000000000000000        2.2544568368979760        1.0804741415526673     
   2.1464466094067260        2.2544568368979760        1.0804741415526673     
   2.5000000000000000        2.2544568368979760        1.0804741415526673     
   2.8535533905932735        2.2544568368979760        1.0804741415526673     
   3.0000000000000000        2.2544568368979760        1.0804741415526673     
   2.0000000000000000        2.5732851803505623        1.2332762600303881     
   2.1464466094067260        2.5732851803505623        1.2332762600303881     
   2.5000000000000000        2.5732851803505619        1.2332762600303879     
   2.8535533905932735        2.5732851803505623        1.2332762600303881     
   3.0000000000000000        2.5732851803505623        1.2332762600303881     
   2.0000000000000000        2.7053482042775712        1.2965689698632008     
   2.1464466094067260        2.7053482042775707        1.2965689698632006     
   2.5000000000000000        2.7053482042775712        1.2965689698632008     
   2.8535533905932735        2.7053482042775712        1.2965689698632008     
   3.0000000000000000        2.7053482042775712        1.2965689698632008     
   2.0000000000000000        1.7320508075688774       0.99999999999999989     
   2.1464466094067260        1.7320508075688774       0.99999999999999989     
   2.5000000000000000        1.7320508075688774       0.99999999999999989     
   2.8535533905932735        1.7320508075688774       0.99999999999999989     
   3.0000000000000000        1.7320508075688774       0.99999999999999989     
   2.0000000000000000        1.8588772916131993        1.0732233047033628     
   2.1464466094067260        1.8588772916131993        1.0732233047033628     
   2.5000000000000004        1.8588772916131993        1.0732233047033628     
   2.8535533905932726        1.8588772916131993        1.0732233047033628     
   3.0000000000000004        1.8588772916131993        1.0732233047033628     
   2.0000000000000000        2.1650635094610968        1.2499999999999998     
   2.1464466094067260        2.1650635094610968        1.2499999999999998     
   2.5000000000000000        2.1650635094610968        1.2499999999999998     
   2.8535533905932735        2.1650635094610968        1.2499999999999998     
   3.0000000000000000        2.1650635094610968        1.2499999999999998     
   2.0000000000000000        2.4712497273089937        1.4267766952966365     
   2.1464466094067260        2.4712497273089937        1.4267766952966365     
   2.5000000000000000        2.4712497273089933        1.4267766952966363     
   2.8535533905932735        2.4712497273089937        1.4267766952966365     
   3.0000000000000000        2.4712497273089937        1.4267766952966365     
   2.0000000000000000        2.5980762113533160        1.4999999999999998     
   2.1464466094067260        2.5980762113533156        1.4999999999999996     
   2.5000000000000000        2.5980762113533160        1.4999999999999998     
   2.8535533905932735        2.5980762113533160        1.4999999999999998     
   3.0000000000000000        2.5980762113533160        1.4999999999999998     
 ZONE I=           5 ,J=           5 ,K=           5 , F=POINT