 VARIABLES = "X", "Y", "Z"
 ZONE F=FEPOINT, ET=QUADRILATERAL, N=         145 E=         114
   2.2129902240705563       0.30485391419576152        0.0000000000000000     
   2.4458107137027700       0.30489398395483591        0.0000000000000000     
   2.7066320133112529       0.30760912148706909        0.0000000000000000     
   2.9706874296323260       0.33544458743136130        0.0000000000000000     
   3.1614544092635697       0.38037515926730953        0.0000000000000000     
   2.2123587123733937       0.61627526806435196        0.0000000000000000     
   2.4491913281459281       0.60753060222508037        0.0000000000000000     
   2.7113118955516815       0.60300199520885134        0.0000000000000000     
   2.9820413085592428       0.59578016571593406        0.0000000000000000     
   3.2330012115137174       0.55191926708824413        0.0000000000000000     
   2.1860303503145997       0.92539835988323171        0.0000000000000000     
   2.4357157585298643       0.90516778003329890        0.0000000000000000     
   2.7104042931438381       0.89351154000512378        0.0000000000000000     
   3.0062688800150403       0.87564097510653471        0.0000000000000000     
   3.3613912289287136       0.82619740886049897        0.0000000000000000     
   3.6128426120827655       0.92006130253880414        0.0000000000000000     
  0.29659074137330615        1.2498621703581581        0.0000000000000000     
  0.59272968635919099        1.2496746180410472        0.0000000000000000     
  0.88953782113430691        1.2492902710709626        0.0000000000000000     
   1.1915165008445083        1.2482303424411751        0.0000000000000000     
   1.5134948782000146        1.2449463097065441        0.0000000000000000     
   1.8398522886396760        1.2327535143485591        0.0000000000000000     
   2.1321500133800875        1.2115364482896582        0.0000000000000000     
   2.4073764374384505        1.1941572398910951        0.0000000000000000     
   2.6956118633235113        1.1835832711622976        0.0000000000000000     
   3.0009229895080258        1.1727794099003543        0.0000000000000000     
   3.3201691637647426        1.1702330070709333        0.0000000000000000     
   3.6835064386190410        1.1744029879209381        0.0000000000000000     
   3.9039087652200779        1.3216388319525290        0.0000000000000000     
   4.1286276919547653        1.2792749720556493        0.0000000000000000     
   4.4528602057520184        1.2562013612754310        0.0000000000000000     
   4.7756014077532454        1.2511306723467528        0.0000000000000000     
   5.0809373919251177        1.2498855680372385        0.0000000000000000     
   5.3829171786389232        1.2496058967562302        0.0000000000000000     
   5.6855932058470247        1.2495549767554706        0.0000000000000000     
   5.9929910813296701        1.2495391836589340        0.0000000000000000     
   6.3142381067755400        1.2494212115701071        0.0000000000000000     
   6.6826252400821664        1.2485729135432400        0.0000000000000000     
   6.8458814228906091        1.3505807953108340        0.0000000000000000     
  0.28630303668581786        1.4999793729171353        0.0000000000000000     
  0.57392646725890073        1.4998882038118837        0.0000000000000000     
  0.86540105549825741        1.4995248399000454        0.0000000000000000     
   1.1638274291919306        1.4983429369380450        0.0000000000000000     
   1.4692148290495106        1.4951054497163256        0.0000000000000000     
   1.7745576183923664        1.4886113298654913        0.0000000000000000     
   2.0725285535853324        1.4799710363755385        0.0000000000000000     
   2.3657660560567146        1.4722043393755566        0.0000000000000000     
   2.6623086786639925        1.4665651829948811        0.0000000000000000     
   2.9661442375793357        1.4629804346287558        0.0000000000000000     
   3.2774982591404505        1.4639286043143800        0.0000000000000000     
   3.5825426034729859        1.4807812864224075        0.0000000000000000     
   3.8653522821126689        1.5061868862774754        0.0000000000000000     
   4.1441228662458851        1.5129653166260701        0.0000000000000000     
   4.4409697527976011        1.5059138267935783        0.0000000000000000     
   4.7475402027927300        1.5017527012790044        0.0000000000000000     
   5.0520830092876317        1.5004185136016153        0.0000000000000000     
   5.3544691461398157        1.5000805960386843        0.0000000000000000     
   5.6583840864960839        1.5000123552919968        0.0000000000000000     
   5.9696998665868533        1.5000014907836952        0.0000000000000000     
   6.2950784091243834        1.5000001403606036        0.0000000000000000     
   6.5978175514343489        1.5000000102358166        0.0000000000000000     
   6.8253173156237601        1.5000000005852685        0.0000000000000000     
  0.26796661361704527        1.7501086578814946        0.0000000000000000     
  0.53963719548629829        1.7501672614388806        0.0000000000000000     
  0.82115634133008386        1.7500373518146133        0.0000000000000000     
   1.1142787051054810        1.7494167039578141        0.0000000000000000     
   1.4138967579664743        1.7478993016392168        0.0000000000000000     
   1.7145085467400130        1.7453602746846832        0.0000000000000000     
   2.0137648579177032        1.7423334719040886        0.0000000000000000     
   2.3121765036829340        1.7396483698833300        0.0000000000000000     
   2.6117074424312552        1.7377081281850841        0.0000000000000000     
   2.9136012055849210        1.7367555637384713        0.0000000000000000     
   3.2166998061281635        1.7381935785050842        0.0000000000000000     
   3.5170990027115714        1.7434864053888279        0.0000000000000000     
   3.8125516217554152        1.7501059115821473        0.0000000000000000     
   4.1067786900037886        1.7533100918688629        0.0000000000000000     
   4.4045735027026351        1.7527227804204888        0.0000000000000000     
   4.7056758738889863        1.7513699013011597        0.0000000000000000     
   5.0073401407009035        1.7507071337666544        0.0000000000000000     
   5.3087587502196998        1.7505081131484852        0.0000000000000000     
   5.6116488548427963        1.7504624972106573        0.0000000000000000     
   5.9209791039291941        1.7504629246521797        0.0000000000000000     
   6.2539462482287842        1.7505789869255934        0.0000000000000000     
   6.6538524185072347        1.7514271002882442        0.0000000000000000     
   6.8396855225104520        1.6494192055428614        0.0000000000000000     
   2.0000000000000000       0.60468750301402374        0.0000000000000000     
   2.0000000000000000       0.30234375150701187        0.0000000000000000     
   2.0000000000000000        0.0000000000000000        0.0000000000000000     
   2.2023437515070121        0.0000000000000000        0.0000000000000000     
   2.4046875030140238        0.0000000000000000        0.0000000000000000     
   2.7000000408563491        0.0000000000000000        0.0000000000000000     
   3.0000000000000000        0.0000000000000000        0.0000000000000000     
   3.3000000030526668       0.30000000305266700        0.0000000000000000     
   3.4500000008174929       0.45000000081749275        0.0000000000000000     
   3.6000000408563491       0.60000004085634906        0.0000000000000000     
   3.7500000408563490       0.75000004085634908        0.0000000000000000     
   4.0000000000000000        1.0000000000000000        0.0000000000000000     
   4.4999999807102480        1.0000000000000000        0.0000000000000000     
   4.7999999807102496        1.0000000000000000        0.0000000000000000     
   5.0999999807102485        1.0000000000000000        0.0000000000000000     
   5.3999999807102501        1.0000000000000000        0.0000000000000000     
   5.6999999807102490        1.0000000000000000        0.0000000000000000     
   5.9999999807102480        1.0000000000000000        0.0000000000000000     
   6.2999999807102496        1.0000000000000000        0.0000000000000000     
   6.6499999903551252        1.0000000000000000        0.0000000000000000     
   7.0000000000000000        1.0000000000000000        0.0000000000000000     
   7.0000000000000000        1.1328124969859763        0.0000000000000000     
   7.0000000000000000        1.2656249939719526        0.0000000000000000     
   7.0000000000000000        1.5000000000724345        0.0000000000000000     
   7.0000000000000000        1.7343750060280474        0.0000000000000000     
   7.0000000000000000        1.8671875030140237        0.0000000000000000     
   7.0000000000000000        2.0000000000000000        0.0000000000000000     
   6.5749999824136580        2.0000000000000000        0.0000000000000000     
   6.1499999648273160        2.0000000000000000        0.0000000000000000     
   5.8499999618302798        2.0000000000000000        0.0000000000000000     
   5.5499999565980556        2.0000000000000000        0.0000000000000000     
   5.2500000000000000        2.0000000000000000        0.0000000000000000     
   4.9500000434019444        2.0000000000000000        0.0000000000000000     
   4.6500000269938546        2.0000000000000000        0.0000000000000000     
   4.3499999974127386        2.0000000000000000        0.0000000000000000     
   4.0499999961197570        2.0000000000000000        0.0000000000000000     
   3.7499999774764916        2.0000000000000000        0.0000000000000000     
   3.4499999565980630        2.0000000000000000        0.0000000000000000     
   3.1500000000000012        2.0000000000000000        0.0000000000000000     
   2.8500000434019395        2.0000000000000000        0.0000000000000000     
   2.5500001622869748        2.0000000000000000        0.0000000000000000     
   2.2500002811720039        2.0000000000000000        0.0000000000000000     
   1.9500000048224333        2.0000000000000000        0.0000000000000000     
   1.6499998377130227        2.0000000000000000        0.0000000000000000     
   1.3499999565980580        2.0000000000000000        0.0000000000000000     
   1.0500000000000025        2.0000000000000000        0.0000000000000000     
  0.75234379490894909        2.0000000000000000        0.0000000000000000     
  0.48515629189492859        2.0000000000000000        0.0000000000000000     
  0.24257814594746385        2.0000000000000000        0.0000000000000000     
   0.0000000000000000        2.0000000000000000        0.0000000000000000     
   0.0000000000000000        1.7499999999637827        0.0000000000000000     
   0.0000000000000000        1.4999999999275655        0.0000000000000000     
   0.0000000000000000        1.2499999999637827        0.0000000000000000     
   0.0000000000000000        1.0000000000000000        0.0000000000000000     
  0.30234376711274835        1.0000000000000000        0.0000000000000000     
  0.60468753422549670        1.0000000000000000        0.0000000000000000     
  0.90000000163498528        1.0000000000000000        0.0000000000000000     
   1.2000000817126979        1.0000000000000000        0.0000000000000000     
   1.5000000817126979        1.0000000000000000        0.0000000000000000     
   2.0000000000000000        1.0000000000000000        0.0000000000000000     
           1           2           7           6
           2           3           8           7
           3           4           9           8
           4           5          10           9
           6           7          12          11
           7           8          13          12
           8           9          14          13
           9          10          15          14
          11          12          24          23
          12          13          25          24
          13          14          26          25
          14          15          27          26
          15          16          28          27
          17          18          41          40
          18          19          42          41
          19          20          43          42
          20          21          44          43
          21          22          45          44
          22          23          46          45
          23          24          47          46
          24          25          48          47
          25          26          49          48
          26          27          50          49
          27          28          51          50
          28          29          52          51
          29          30          53          52
          30          31          54          53
          31          32          55          54
          32          33          56          55
          33          34          57          56
          34          35          58          57
          35          36          59          58
          36          37          60          59
          37          38          61          60
          38          39          62          61
          40          41          64          63
          41          42          65          64
          42          43          66          65
          43          44          67          66
          44          45          68          67
          45          46          69          68
          46          47          70          69
          47          48          71          70
          48          49          72          71
          49          50          73          72
          50          51          74          73
          51          52          75          74
          52          53          76          75
          53          54          77          76
          54          55          78          77
          55          56          79          78
          56          57          80          79
          57          58          81          80
          58          59          82          81
          59          60          83          82
          60          61          84          83
          61          62          85          84
           6          86          87           1
           1          87          88          89
           1          89          90           2
           2          90          91           3
           3          91          92           4
           4          92          93           5
           5          93          94          10
          10          94          95          15
          15          95          96          16
          16          96          97          28
          28          97          30          29
          30          97          98          31
          31          98          99          32
          32          99         100          33
          33         100         101          34
          34         101         102          35
          35         102         103          36
          36         103         104          37
          37         104         105          38
          38         105         106         107
          38         107         108          39
          39         108         109          62
          62         109         110          85
          85         110         111          84
          84         111         112         113
          84         113         114          83
          83         114         115          82
          82         115         116          81
          81         116         117          80
          80         117         118          79
          79         118         119          78
          78         119         120          77
          77         120         121          76
          76         121         122          75
          75         122         123          74
          74         123         124          73
          73         124         125          72
          72         125         126          71
          71         126         127          70
          70         127         128          69
          69         128         129          68
          68         129         130          67
          67         130         131          66
          66         131         132          65
          65         132         133          64
          64         133         134          63
          63         134         135         136
          63         136         137          40
          40         137         138          17
          17         138         139         140
          17         140         141          18
          18         141         142          19
          19         142         143          20
          20         143         144          21
          21         144         145          22
          22         145          11          23
          11         145          86           6
