  TITLE = "SEM Quad mesh" 
  VARIABLES = "x","y", "z"
 ZONE I=           7 ,J=           7 , F=POINT
  0.22173E+01  0.29842E+00  0.00000E+00
  0.22328E+01  0.29873E+00  0.00000E+00
  0.22751E+01  0.29958E+00  0.00000E+00
  0.23330E+01  0.30074E+00  0.00000E+00
  0.23908E+01  0.30189E+00  0.00000E+00
  0.24332E+01  0.30274E+00  0.00000E+00
  0.24487E+01  0.30305E+00  0.00000E+00
  0.22170E+01  0.31942E+00  0.00000E+00
  0.22326E+01  0.31968E+00  0.00000E+00
  0.22750E+01  0.32040E+00  0.00000E+00
  0.23329E+01  0.32137E+00  0.00000E+00
  0.23908E+01  0.32234E+00  0.00000E+00
  0.24333E+01  0.32305E+00  0.00000E+00
  0.24488E+01  0.32332E+00  0.00000E+00
  0.22163E+01  0.37680E+00  0.00000E+00
  0.22319E+01  0.37692E+00  0.00000E+00
  0.22745E+01  0.37727E+00  0.00000E+00
  0.23327E+01  0.37773E+00  0.00000E+00
  0.23909E+01  0.37820E+00  0.00000E+00
  0.24335E+01  0.37855E+00  0.00000E+00
  0.24491E+01  0.37867E+00  0.00000E+00
  0.22154E+01  0.45517E+00  0.00000E+00
  0.22311E+01  0.45511E+00  0.00000E+00
  0.22739E+01  0.45495E+00  0.00000E+00
  0.23324E+01  0.45473E+00  0.00000E+00
  0.23910E+01  0.45451E+00  0.00000E+00
  0.24338E+01  0.45435E+00  0.00000E+00
  0.24495E+01  0.45430E+00  0.00000E+00
  0.22145E+01  0.53354E+00  0.00000E+00
  0.22302E+01  0.53330E+00  0.00000E+00
  0.22733E+01  0.53264E+00  0.00000E+00
  0.23322E+01  0.53173E+00  0.00000E+00
  0.23910E+01  0.53082E+00  0.00000E+00
  0.24341E+01  0.53016E+00  0.00000E+00
  0.24499E+01  0.52992E+00  0.00000E+00
  0.22138E+01  0.59092E+00  0.00000E+00
  0.22296E+01  0.59054E+00  0.00000E+00
  0.22729E+01  0.58951E+00  0.00000E+00
  0.23320E+01  0.58810E+00  0.00000E+00
  0.23911E+01  0.58669E+00  0.00000E+00
  0.24344E+01  0.58565E+00  0.00000E+00
  0.24502E+01  0.58528E+00  0.00000E+00
  0.22135E+01  0.61192E+00  0.00000E+00
  0.22294E+01  0.61149E+00  0.00000E+00
  0.22727E+01  0.61032E+00  0.00000E+00
  0.23319E+01  0.60873E+00  0.00000E+00
  0.23911E+01  0.60713E+00  0.00000E+00
  0.24344E+01  0.60597E+00  0.00000E+00
  0.24503E+01  0.60554E+00  0.00000E+00
 ZONE I=           7 ,J=           7 , F=POINT
  0.24487E+01  0.30305E+00  0.00000E+00
  0.24660E+01  0.30331E+00  0.00000E+00
  0.25133E+01  0.30401E+00  0.00000E+00
  0.25779E+01  0.30497E+00  0.00000E+00
  0.26425E+01  0.30593E+00  0.00000E+00
  0.26899E+01  0.30663E+00  0.00000E+00
  0.27072E+01  0.30689E+00  0.00000E+00
  0.24488E+01  0.32332E+00  0.00000E+00
  0.24661E+01  0.32354E+00  0.00000E+00
  0.25134E+01  0.32415E+00  0.00000E+00
  0.25781E+01  0.32498E+00  0.00000E+00
  0.26428E+01  0.32581E+00  0.00000E+00
  0.26901E+01  0.32642E+00  0.00000E+00
  0.27075E+01  0.32664E+00  0.00000E+00
  0.24491E+01  0.37867E+00  0.00000E+00
  0.24664E+01  0.37880E+00  0.00000E+00
  0.25139E+01  0.37916E+00  0.00000E+00
  0.25787E+01  0.37964E+00  0.00000E+00
  0.26435E+01  0.38013E+00  0.00000E+00
  0.26909E+01  0.38048E+00  0.00000E+00
  0.27083E+01  0.38061E+00  0.00000E+00
  0.24495E+01  0.45430E+00  0.00000E+00
  0.24669E+01  0.45430E+00  0.00000E+00
  0.25145E+01  0.45430E+00  0.00000E+00
  0.25794E+01  0.45431E+00  0.00000E+00
  0.26444E+01  0.45432E+00  0.00000E+00
  0.26919E+01  0.45433E+00  0.00000E+00
  0.27094E+01  0.45433E+00  0.00000E+00
  0.24499E+01  0.52992E+00  0.00000E+00
  0.24674E+01  0.52979E+00  0.00000E+00
  0.25150E+01  0.52945E+00  0.00000E+00
  0.25802E+01  0.52898E+00  0.00000E+00
  0.26453E+01  0.52852E+00  0.00000E+00
  0.26930E+01  0.52818E+00  0.00000E+00
  0.27105E+01  0.52805E+00  0.00000E+00
  0.24502E+01  0.58528E+00  0.00000E+00
  0.24677E+01  0.58506E+00  0.00000E+00
  0.25155E+01  0.58446E+00  0.00000E+00
  0.25807E+01  0.58365E+00  0.00000E+00
  0.26460E+01  0.58283E+00  0.00000E+00
  0.26938E+01  0.58224E+00  0.00000E+00
  0.27113E+01  0.58202E+00  0.00000E+00
  0.24503E+01  0.60554E+00  0.00000E+00
  0.24678E+01  0.60529E+00  0.00000E+00
  0.25156E+01  0.60460E+00  0.00000E+00
  0.25809E+01  0.60366E+00  0.00000E+00
  0.26462E+01  0.60272E+00  0.00000E+00
  0.26940E+01  0.60203E+00  0.00000E+00
  0.27115E+01  0.60177E+00  0.00000E+00
 ZONE I=           7 ,J=           7 , F=POINT
  0.27072E+01  0.30689E+00  0.00000E+00
  0.27248E+01  0.30877E+00  0.00000E+00
  0.27730E+01  0.31389E+00  0.00000E+00
  0.28389E+01  0.32090E+00  0.00000E+00
  0.29047E+01  0.32791E+00  0.00000E+00
  0.29529E+01  0.33303E+00  0.00000E+00
  0.29706E+01  0.33491E+00  0.00000E+00
  0.27075E+01  0.32664E+00  0.00000E+00
  0.27251E+01  0.32836E+00  0.00000E+00
  0.27734E+01  0.33305E+00  0.00000E+00
  0.28394E+01  0.33945E+00  0.00000E+00
  0.29053E+01  0.34586E+00  0.00000E+00
  0.29536E+01  0.35055E+00  0.00000E+00
  0.29713E+01  0.35227E+00  0.00000E+00
  0.27083E+01  0.38061E+00  0.00000E+00
  0.27260E+01  0.38189E+00  0.00000E+00
  0.27745E+01  0.38538E+00  0.00000E+00
  0.28408E+01  0.39015E+00  0.00000E+00
  0.29070E+01  0.39491E+00  0.00000E+00
  0.29555E+01  0.39841E+00  0.00000E+00
  0.29733E+01  0.39968E+00  0.00000E+00
  0.27094E+01  0.45433E+00  0.00000E+00
  0.27272E+01  0.45501E+00  0.00000E+00
  0.27760E+01  0.45686E+00  0.00000E+00
  0.28426E+01  0.45939E+00  0.00000E+00
  0.29093E+01  0.46192E+00  0.00000E+00
  0.29581E+01  0.46378E+00  0.00000E+00
  0.29759E+01  0.46446E+00  0.00000E+00
  0.27105E+01  0.52805E+00  0.00000E+00
  0.27284E+01  0.52813E+00  0.00000E+00
  0.27775E+01  0.52835E+00  0.00000E+00
  0.28445E+01  0.52864E+00  0.00000E+00
  0.29116E+01  0.52893E+00  0.00000E+00
  0.29606E+01  0.52915E+00  0.00000E+00
  0.29786E+01  0.52923E+00  0.00000E+00
  0.27113E+01  0.58202E+00  0.00000E+00
  0.27293E+01  0.58166E+00  0.00000E+00
  0.27786E+01  0.58068E+00  0.00000E+00
  0.28459E+01  0.57933E+00  0.00000E+00
  0.29132E+01  0.57799E+00  0.00000E+00
  0.29625E+01  0.57701E+00  0.00000E+00
  0.29806E+01  0.57665E+00  0.00000E+00
  0.27115E+01  0.60177E+00  0.00000E+00
  0.27296E+01  0.60125E+00  0.00000E+00
  0.27790E+01  0.59983E+00  0.00000E+00
  0.28464E+01  0.59789E+00  0.00000E+00
  0.29139E+01  0.59594E+00  0.00000E+00
  0.29632E+01  0.59452E+00  0.00000E+00
  0.29813E+01  0.59400E+00  0.00000E+00
 ZONE I=           7 ,J=           7 , F=POINT
  0.29706E+01  0.33491E+00  0.00000E+00
  0.29834E+01  0.33792E+00  0.00000E+00
  0.30182E+01  0.34616E+00  0.00000E+00
  0.30659E+01  0.35741E+00  0.00000E+00
  0.31136E+01  0.36865E+00  0.00000E+00
  0.31484E+01  0.37689E+00  0.00000E+00
  0.31612E+01  0.37990E+00  0.00000E+00
  0.29713E+01  0.35227E+00  0.00000E+00
  0.29843E+01  0.35488E+00  0.00000E+00
  0.30200E+01  0.36202E+00  0.00000E+00
  0.30686E+01  0.37178E+00  0.00000E+00
  0.31173E+01  0.38154E+00  0.00000E+00
  0.31529E+01  0.38868E+00  0.00000E+00
  0.31659E+01  0.39130E+00  0.00000E+00
  0.29733E+01  0.39968E+00  0.00000E+00
  0.29870E+01  0.40121E+00  0.00000E+00
  0.30247E+01  0.40537E+00  0.00000E+00
  0.30761E+01  0.41105E+00  0.00000E+00
  0.31275E+01  0.41674E+00  0.00000E+00
  0.31651E+01  0.42090E+00  0.00000E+00
  0.31789E+01  0.42242E+00  0.00000E+00
  0.29759E+01  0.46446E+00  0.00000E+00
  0.29907E+01  0.46449E+00  0.00000E+00
  0.30311E+01  0.46458E+00  0.00000E+00
  0.30863E+01  0.46470E+00  0.00000E+00
  0.31414E+01  0.46482E+00  0.00000E+00
  0.31818E+01  0.46491E+00  0.00000E+00
  0.31966E+01  0.46494E+00  0.00000E+00
  0.29786E+01  0.52923E+00  0.00000E+00
  0.29944E+01  0.52777E+00  0.00000E+00
  0.30375E+01  0.52379E+00  0.00000E+00
  0.30964E+01  0.51834E+00  0.00000E+00
  0.31554E+01  0.51290E+00  0.00000E+00
  0.31985E+01  0.50892E+00  0.00000E+00
  0.32143E+01  0.50746E+00  0.00000E+00
  0.29806E+01  0.57665E+00  0.00000E+00
  0.29971E+01  0.57410E+00  0.00000E+00
  0.30422E+01  0.56713E+00  0.00000E+00
  0.31039E+01  0.55762E+00  0.00000E+00
  0.31656E+01  0.54810E+00  0.00000E+00
  0.32107E+01  0.54113E+00  0.00000E+00
  0.32272E+01  0.53859E+00  0.00000E+00
  0.29813E+01  0.59400E+00  0.00000E+00
  0.29981E+01  0.59105E+00  0.00000E+00
  0.30440E+01  0.58300E+00  0.00000E+00
  0.31066E+01  0.57199E+00  0.00000E+00
  0.31693E+01  0.56098E+00  0.00000E+00
  0.32152E+01  0.55293E+00  0.00000E+00
  0.32320E+01  0.54998E+00  0.00000E+00
 ZONE I=           7 ,J=           7 , F=POINT
  0.22135E+01  0.61192E+00  0.00000E+00
  0.22294E+01  0.61149E+00  0.00000E+00
  0.22727E+01  0.61032E+00  0.00000E+00
  0.23319E+01  0.60873E+00  0.00000E+00
  0.23911E+01  0.60713E+00  0.00000E+00
  0.24344E+01  0.60597E+00  0.00000E+00
  0.24503E+01  0.60554E+00  0.00000E+00
  0.22117E+01  0.63285E+00  0.00000E+00
  0.22276E+01  0.63236E+00  0.00000E+00
  0.22711E+01  0.63102E+00  0.00000E+00
  0.23305E+01  0.62919E+00  0.00000E+00
  0.23899E+01  0.62736E+00  0.00000E+00
  0.24334E+01  0.62602E+00  0.00000E+00
  0.24493E+01  0.62553E+00  0.00000E+00
  0.22067E+01  0.69002E+00  0.00000E+00
  0.22228E+01  0.68936E+00  0.00000E+00
  0.22667E+01  0.68755E+00  0.00000E+00
  0.23267E+01  0.68509E+00  0.00000E+00
  0.23867E+01  0.68262E+00  0.00000E+00
  0.24306E+01  0.68081E+00  0.00000E+00
  0.24467E+01  0.68015E+00  0.00000E+00
  0.21999E+01  0.76813E+00  0.00000E+00
  0.22162E+01  0.76723E+00  0.00000E+00
  0.22607E+01  0.76478E+00  0.00000E+00
  0.23215E+01  0.76144E+00  0.00000E+00
  0.23823E+01  0.75810E+00  0.00000E+00
  0.24268E+01  0.75565E+00  0.00000E+00
  0.24431E+01  0.75476E+00  0.00000E+00
  0.21931E+01  0.84623E+00  0.00000E+00
  0.22096E+01  0.84510E+00  0.00000E+00
  0.22547E+01  0.84201E+00  0.00000E+00
  0.23163E+01  0.83780E+00  0.00000E+00
  0.23779E+01  0.83358E+00  0.00000E+00
  0.24230E+01  0.83050E+00  0.00000E+00
  0.24395E+01  0.82937E+00  0.00000E+00
  0.21882E+01  0.90340E+00  0.00000E+00
  0.22048E+01  0.90210E+00  0.00000E+00
  0.22504E+01  0.89855E+00  0.00000E+00
  0.23125E+01  0.89370E+00  0.00000E+00
  0.23747E+01  0.88884E+00  0.00000E+00
  0.24203E+01  0.88529E+00  0.00000E+00
  0.24369E+01  0.88399E+00  0.00000E+00
  0.21863E+01  0.92433E+00  0.00000E+00
  0.22031E+01  0.92297E+00  0.00000E+00
  0.22487E+01  0.91924E+00  0.00000E+00
  0.23112E+01  0.91416E+00  0.00000E+00
  0.23736E+01  0.90907E+00  0.00000E+00
  0.24192E+01  0.90534E+00  0.00000E+00
  0.24360E+01  0.90398E+00  0.00000E+00
 ZONE I=           7 ,J=           7 , F=POINT
  0.24503E+01  0.60554E+00  0.00000E+00
  0.24678E+01  0.60529E+00  0.00000E+00
  0.25156E+01  0.60460E+00  0.00000E+00
  0.25809E+01  0.60366E+00  0.00000E+00
  0.26462E+01  0.60272E+00  0.00000E+00
  0.26940E+01  0.60203E+00  0.00000E+00
  0.27115E+01  0.60177E+00  0.00000E+00
  0.24493E+01  0.62553E+00  0.00000E+00
  0.24669E+01  0.62524E+00  0.00000E+00
  0.25149E+01  0.62445E+00  0.00000E+00
  0.25804E+01  0.62337E+00  0.00000E+00
  0.26459E+01  0.62229E+00  0.00000E+00
  0.26939E+01  0.62150E+00  0.00000E+00
  0.27114E+01  0.62121E+00  0.00000E+00
  0.24467E+01  0.68015E+00  0.00000E+00
  0.24644E+01  0.67976E+00  0.00000E+00
  0.25128E+01  0.67869E+00  0.00000E+00
  0.25789E+01  0.67724E+00  0.00000E+00
  0.26451E+01  0.67578E+00  0.00000E+00
  0.26934E+01  0.67471E+00  0.00000E+00
  0.27112E+01  0.67432E+00  0.00000E+00
  0.24431E+01  0.75476E+00  0.00000E+00
  0.24611E+01  0.75423E+00  0.00000E+00
  0.25100E+01  0.75279E+00  0.00000E+00
  0.25770E+01  0.75082E+00  0.00000E+00
  0.26439E+01  0.74884E+00  0.00000E+00
  0.26929E+01  0.74740E+00  0.00000E+00
  0.27108E+01  0.74687E+00  0.00000E+00
  0.24395E+01  0.82937E+00  0.00000E+00
  0.24577E+01  0.82870E+00  0.00000E+00
  0.25073E+01  0.82688E+00  0.00000E+00
  0.25750E+01  0.82440E+00  0.00000E+00
  0.26427E+01  0.82191E+00  0.00000E+00
  0.26923E+01  0.82009E+00  0.00000E+00
  0.27104E+01  0.81942E+00  0.00000E+00
  0.24369E+01  0.88399E+00  0.00000E+00
  0.24552E+01  0.88322E+00  0.00000E+00
  0.25052E+01  0.88112E+00  0.00000E+00
  0.25735E+01  0.87826E+00  0.00000E+00
  0.26418E+01  0.87540E+00  0.00000E+00
  0.26918E+01  0.87330E+00  0.00000E+00
  0.27101E+01  0.87253E+00  0.00000E+00
  0.24360E+01  0.90398E+00  0.00000E+00
  0.24543E+01  0.90318E+00  0.00000E+00
  0.25045E+01  0.90098E+00  0.00000E+00
  0.25730E+01  0.89798E+00  0.00000E+00
  0.26415E+01  0.89497E+00  0.00000E+00
  0.26917E+01  0.89278E+00  0.00000E+00
  0.27100E+01  0.89197E+00  0.00000E+00
 ZONE I=           7 ,J=           7 , F=POINT
  0.27115E+01  0.60177E+00  0.00000E+00
  0.27296E+01  0.60125E+00  0.00000E+00
  0.27790E+01  0.59983E+00  0.00000E+00
  0.28464E+01  0.59789E+00  0.00000E+00
  0.29139E+01  0.59594E+00  0.00000E+00
  0.29632E+01  0.59452E+00  0.00000E+00
  0.29813E+01  0.59400E+00  0.00000E+00
  0.27114E+01  0.62121E+00  0.00000E+00
  0.27296E+01  0.62064E+00  0.00000E+00
  0.27793E+01  0.61906E+00  0.00000E+00
  0.28471E+01  0.61691E+00  0.00000E+00
  0.29150E+01  0.61476E+00  0.00000E+00
  0.29647E+01  0.61318E+00  0.00000E+00
  0.29828E+01  0.61260E+00  0.00000E+00
  0.27112E+01  0.67432E+00  0.00000E+00
  0.27296E+01  0.67359E+00  0.00000E+00
  0.27801E+01  0.67160E+00  0.00000E+00
  0.28491E+01  0.66887E+00  0.00000E+00
  0.29181E+01  0.66615E+00  0.00000E+00
  0.29686E+01  0.66416E+00  0.00000E+00
  0.29871E+01  0.66343E+00  0.00000E+00
  0.27108E+01  0.74687E+00  0.00000E+00
  0.27297E+01  0.74593E+00  0.00000E+00
  0.27813E+01  0.74337E+00  0.00000E+00
  0.28518E+01  0.73986E+00  0.00000E+00
  0.29223E+01  0.73636E+00  0.00000E+00
  0.29739E+01  0.73379E+00  0.00000E+00
  0.29928E+01  0.73285E+00  0.00000E+00
  0.27104E+01  0.81942E+00  0.00000E+00
  0.27297E+01  0.81827E+00  0.00000E+00
  0.27825E+01  0.81514E+00  0.00000E+00
  0.28545E+01  0.81085E+00  0.00000E+00
  0.29266E+01  0.80656E+00  0.00000E+00
  0.29793E+01  0.80343E+00  0.00000E+00
  0.29986E+01  0.80228E+00  0.00000E+00
  0.27101E+01  0.87253E+00  0.00000E+00
  0.27297E+01  0.87123E+00  0.00000E+00
  0.27833E+01  0.86767E+00  0.00000E+00
  0.28565E+01  0.86282E+00  0.00000E+00
  0.29297E+01  0.85796E+00  0.00000E+00
  0.29832E+01  0.85440E+00  0.00000E+00
  0.30029E+01  0.85310E+00  0.00000E+00
  0.27100E+01  0.89197E+00  0.00000E+00
  0.27297E+01  0.89061E+00  0.00000E+00
  0.27836E+01  0.88690E+00  0.00000E+00
  0.28572E+01  0.88184E+00  0.00000E+00
  0.29308E+01  0.87677E+00  0.00000E+00
  0.29847E+01  0.87306E+00  0.00000E+00
  0.30044E+01  0.87170E+00  0.00000E+00
 ZONE I=           7 ,J=           7 , F=POINT
  0.29813E+01  0.59400E+00  0.00000E+00
  0.29981E+01  0.59105E+00  0.00000E+00
  0.30440E+01  0.58300E+00  0.00000E+00
  0.31066E+01  0.57199E+00  0.00000E+00
  0.31693E+01  0.56098E+00  0.00000E+00
  0.32152E+01  0.55293E+00  0.00000E+00
  0.32320E+01  0.54998E+00  0.00000E+00
  0.29828E+01  0.61260E+00  0.00000E+00
  0.30001E+01  0.60960E+00  0.00000E+00
  0.30472E+01  0.60141E+00  0.00000E+00
  0.31116E+01  0.59021E+00  0.00000E+00
  0.31759E+01  0.57901E+00  0.00000E+00
  0.32230E+01  0.57081E+00  0.00000E+00
  0.32403E+01  0.56781E+00  0.00000E+00
  0.29871E+01  0.66343E+00  0.00000E+00
  0.30056E+01  0.66029E+00  0.00000E+00
  0.30561E+01  0.65170E+00  0.00000E+00
  0.31251E+01  0.63998E+00  0.00000E+00
  0.31941E+01  0.62826E+00  0.00000E+00
  0.32446E+01  0.61968E+00  0.00000E+00
  0.32631E+01  0.61654E+00  0.00000E+00
  0.29928E+01  0.73285E+00  0.00000E+00
  0.30130E+01  0.72952E+00  0.00000E+00
  0.30682E+01  0.72041E+00  0.00000E+00
  0.31435E+01  0.70798E+00  0.00000E+00
  0.32189E+01  0.69554E+00  0.00000E+00
  0.32740E+01  0.68643E+00  0.00000E+00
  0.32942E+01  0.68310E+00  0.00000E+00
  0.29986E+01  0.80228E+00  0.00000E+00
  0.30205E+01  0.79875E+00  0.00000E+00
  0.30803E+01  0.78912E+00  0.00000E+00
  0.31620E+01  0.77597E+00  0.00000E+00
  0.32436E+01  0.76282E+00  0.00000E+00
  0.33034E+01  0.75319E+00  0.00000E+00
  0.33253E+01  0.74966E+00  0.00000E+00
  0.30029E+01  0.85310E+00  0.00000E+00
  0.30260E+01  0.84944E+00  0.00000E+00
  0.30892E+01  0.83942E+00  0.00000E+00
  0.31755E+01  0.82575E+00  0.00000E+00
  0.32618E+01  0.81207E+00  0.00000E+00
  0.33250E+01  0.80205E+00  0.00000E+00
  0.33481E+01  0.79839E+00  0.00000E+00
  0.30044E+01  0.87170E+00  0.00000E+00
  0.30280E+01  0.86799E+00  0.00000E+00
  0.30924E+01  0.85783E+00  0.00000E+00
  0.31804E+01  0.84396E+00  0.00000E+00
  0.32684E+01  0.83009E+00  0.00000E+00
  0.33329E+01  0.81994E+00  0.00000E+00
  0.33564E+01  0.81622E+00  0.00000E+00
 ZONE I=           7 ,J=           7 , F=POINT
  0.21863E+01  0.92433E+00  0.00000E+00
  0.22031E+01  0.92297E+00  0.00000E+00
  0.22487E+01  0.91924E+00  0.00000E+00
  0.23112E+01  0.91416E+00  0.00000E+00
  0.23736E+01  0.90907E+00  0.00000E+00
  0.24192E+01  0.90534E+00  0.00000E+00
  0.24360E+01  0.90398E+00  0.00000E+00
  0.21827E+01  0.94355E+00  0.00000E+00
  0.21996E+01  0.94220E+00  0.00000E+00
  0.22455E+01  0.93851E+00  0.00000E+00
  0.23084E+01  0.93346E+00  0.00000E+00
  0.23712E+01  0.92842E+00  0.00000E+00
  0.24172E+01  0.92473E+00  0.00000E+00
  0.24340E+01  0.92338E+00  0.00000E+00
  0.21728E+01  0.99605E+00  0.00000E+00
  0.21900E+01  0.99473E+00  0.00000E+00
  0.22368E+01  0.99113E+00  0.00000E+00
  0.23008E+01  0.98621E+00  0.00000E+00
  0.23648E+01  0.98129E+00  0.00000E+00
  0.24116E+01  0.97769E+00  0.00000E+00
  0.24288E+01  0.97637E+00  0.00000E+00
  0.21593E+01  0.10678E+01  0.00000E+00
  0.21768E+01  0.10665E+01  0.00000E+00
  0.22249E+01  0.10630E+01  0.00000E+00
  0.22905E+01  0.10583E+01  0.00000E+00
  0.23560E+01  0.10535E+01  0.00000E+00
  0.24041E+01  0.10500E+01  0.00000E+00
  0.24216E+01  0.10488E+01  0.00000E+00
  0.21457E+01  0.11395E+01  0.00000E+00
  0.21637E+01  0.11383E+01  0.00000E+00
  0.22129E+01  0.11349E+01  0.00000E+00
  0.22801E+01  0.11303E+01  0.00000E+00
  0.23473E+01  0.11257E+01  0.00000E+00
  0.23965E+01  0.11224E+01  0.00000E+00
  0.24145E+01  0.11212E+01  0.00000E+00
  0.21358E+01  0.11920E+01  0.00000E+00
  0.21541E+01  0.11908E+01  0.00000E+00
  0.22042E+01  0.11875E+01  0.00000E+00
  0.22725E+01  0.11831E+01  0.00000E+00
  0.23409E+01  0.11786E+01  0.00000E+00
  0.23909E+01  0.11753E+01  0.00000E+00
  0.24092E+01  0.11741E+01  0.00000E+00
  0.21322E+01  0.12112E+01  0.00000E+00
  0.21506E+01  0.12100E+01  0.00000E+00
  0.22010E+01  0.12068E+01  0.00000E+00
  0.22698E+01  0.12024E+01  0.00000E+00
  0.23385E+01  0.11980E+01  0.00000E+00
  0.23889E+01  0.11947E+01  0.00000E+00
  0.24073E+01  0.11935E+01  0.00000E+00
 ZONE I=           7 ,J=           7 , F=POINT
  0.24360E+01  0.90398E+00  0.00000E+00
  0.24543E+01  0.90318E+00  0.00000E+00
  0.25045E+01  0.90098E+00  0.00000E+00
  0.25730E+01  0.89798E+00  0.00000E+00
  0.26415E+01  0.89497E+00  0.00000E+00
  0.26917E+01  0.89278E+00  0.00000E+00
  0.27100E+01  0.89197E+00  0.00000E+00
  0.24340E+01  0.92338E+00  0.00000E+00
  0.24525E+01  0.92257E+00  0.00000E+00
  0.25028E+01  0.92038E+00  0.00000E+00
  0.25715E+01  0.91739E+00  0.00000E+00
  0.26403E+01  0.91439E+00  0.00000E+00
  0.26906E+01  0.91220E+00  0.00000E+00
  0.27090E+01  0.91140E+00  0.00000E+00
  0.24288E+01  0.97637E+00  0.00000E+00
  0.24474E+01  0.97557E+00  0.00000E+00
  0.24982E+01  0.97340E+00  0.00000E+00
  0.25675E+01  0.97042E+00  0.00000E+00
  0.26369E+01  0.96745E+00  0.00000E+00
  0.26877E+01  0.96527E+00  0.00000E+00
  0.27063E+01  0.96447E+00  0.00000E+00
  0.24216E+01  0.10488E+01  0.00000E+00
  0.24404E+01  0.10480E+01  0.00000E+00
  0.24918E+01  0.10458E+01  0.00000E+00
  0.25621E+01  0.10429E+01  0.00000E+00
  0.26323E+01  0.10399E+01  0.00000E+00
  0.26837E+01  0.10378E+01  0.00000E+00
  0.27025E+01  0.10370E+01  0.00000E+00
  0.24145E+01  0.11212E+01  0.00000E+00
  0.24335E+01  0.11204E+01  0.00000E+00
  0.24855E+01  0.11182E+01  0.00000E+00
  0.25566E+01  0.11153E+01  0.00000E+00
  0.26277E+01  0.11124E+01  0.00000E+00
  0.26797E+01  0.11103E+01  0.00000E+00
  0.26987E+01  0.11095E+01  0.00000E+00
  0.24092E+01  0.11741E+01  0.00000E+00
  0.24284E+01  0.11734E+01  0.00000E+00
  0.24809E+01  0.11712E+01  0.00000E+00
  0.25526E+01  0.11684E+01  0.00000E+00
  0.26243E+01  0.11655E+01  0.00000E+00
  0.26768E+01  0.11633E+01  0.00000E+00
  0.26960E+01  0.11626E+01  0.00000E+00
  0.24073E+01  0.11935E+01  0.00000E+00
  0.24266E+01  0.11928E+01  0.00000E+00
  0.24792E+01  0.11907E+01  0.00000E+00
  0.25511E+01  0.11878E+01  0.00000E+00
  0.26230E+01  0.11849E+01  0.00000E+00
  0.26757E+01  0.11828E+01  0.00000E+00
  0.26949E+01  0.11820E+01  0.00000E+00
 ZONE I=           7 ,J=           7 , F=POINT
  0.27100E+01  0.89197E+00  0.00000E+00
  0.27297E+01  0.89061E+00  0.00000E+00
  0.27836E+01  0.88690E+00  0.00000E+00
  0.28572E+01  0.88184E+00  0.00000E+00
  0.29308E+01  0.87677E+00  0.00000E+00
  0.29847E+01  0.87306E+00  0.00000E+00
  0.30044E+01  0.87170E+00  0.00000E+00
  0.27090E+01  0.91140E+00  0.00000E+00
  0.27288E+01  0.91007E+00  0.00000E+00
  0.27828E+01  0.90643E+00  0.00000E+00
  0.28565E+01  0.90146E+00  0.00000E+00
  0.29303E+01  0.89649E+00  0.00000E+00
  0.29843E+01  0.89285E+00  0.00000E+00
  0.30040E+01  0.89151E+00  0.00000E+00
  0.27063E+01  0.96447E+00  0.00000E+00
  0.27261E+01  0.96321E+00  0.00000E+00
  0.27804E+01  0.95977E+00  0.00000E+00
  0.28546E+01  0.95506E+00  0.00000E+00
  0.29288E+01  0.95035E+00  0.00000E+00
  0.29831E+01  0.94690E+00  0.00000E+00
  0.30030E+01  0.94564E+00  0.00000E+00
  0.27025E+01  0.10370E+01  0.00000E+00
  0.27225E+01  0.10358E+01  0.00000E+00
  0.27772E+01  0.10326E+01  0.00000E+00
  0.28520E+01  0.10283E+01  0.00000E+00
  0.29268E+01  0.10239E+01  0.00000E+00
  0.29815E+01  0.10207E+01  0.00000E+00
  0.30015E+01  0.10196E+01  0.00000E+00
  0.26987E+01  0.11095E+01  0.00000E+00
  0.27189E+01  0.11084E+01  0.00000E+00
  0.27741E+01  0.11055E+01  0.00000E+00
  0.28494E+01  0.11015E+01  0.00000E+00
  0.29247E+01  0.10975E+01  0.00000E+00
  0.29799E+01  0.10946E+01  0.00000E+00
  0.30001E+01  0.10935E+01  0.00000E+00
  0.26960E+01  0.11626E+01  0.00000E+00
  0.27163E+01  0.11616E+01  0.00000E+00
  0.27717E+01  0.11588E+01  0.00000E+00
  0.28475E+01  0.11551E+01  0.00000E+00
  0.29233E+01  0.11514E+01  0.00000E+00
  0.29787E+01  0.11486E+01  0.00000E+00
  0.29990E+01  0.11476E+01  0.00000E+00
  0.26949E+01  0.11820E+01  0.00000E+00
  0.27153E+01  0.11810E+01  0.00000E+00
  0.27709E+01  0.11783E+01  0.00000E+00
  0.28468E+01  0.11747E+01  0.00000E+00
  0.29227E+01  0.11711E+01  0.00000E+00
  0.29783E+01  0.11684E+01  0.00000E+00
  0.29986E+01  0.11674E+01  0.00000E+00
 ZONE I=           7 ,J=           7 , F=POINT
  0.30044E+01  0.87170E+00  0.00000E+00
  0.30280E+01  0.86799E+00  0.00000E+00
  0.30924E+01  0.85783E+00  0.00000E+00
  0.31804E+01  0.84396E+00  0.00000E+00
  0.32684E+01  0.83009E+00  0.00000E+00
  0.33329E+01  0.81994E+00  0.00000E+00
  0.33564E+01  0.81622E+00  0.00000E+00
  0.30040E+01  0.89151E+00  0.00000E+00
  0.30274E+01  0.88798E+00  0.00000E+00
  0.30914E+01  0.87833E+00  0.00000E+00
  0.31788E+01  0.86514E+00  0.00000E+00
  0.32662E+01  0.85196E+00  0.00000E+00
  0.33302E+01  0.84231E+00  0.00000E+00
  0.33536E+01  0.83877E+00  0.00000E+00
  0.30030E+01  0.94564E+00  0.00000E+00
  0.30259E+01  0.94261E+00  0.00000E+00
  0.30887E+01  0.93432E+00  0.00000E+00
  0.31744E+01  0.92301E+00  0.00000E+00
  0.32601E+01  0.91169E+00  0.00000E+00
  0.33228E+01  0.90341E+00  0.00000E+00
  0.33458E+01  0.90038E+00  0.00000E+00
  0.30015E+01  0.10196E+01  0.00000E+00
  0.30239E+01  0.10172E+01  0.00000E+00
  0.30849E+01  0.10108E+01  0.00000E+00
  0.31683E+01  0.10020E+01  0.00000E+00
  0.32517E+01  0.99329E+00  0.00000E+00
  0.33127E+01  0.98687E+00  0.00000E+00
  0.33351E+01  0.98453E+00  0.00000E+00
  0.30001E+01  0.10935E+01  0.00000E+00
  0.30218E+01  0.10918E+01  0.00000E+00
  0.30812E+01  0.10873E+01  0.00000E+00
  0.31622E+01  0.10811E+01  0.00000E+00
  0.32433E+01  0.10749E+01  0.00000E+00
  0.33027E+01  0.10703E+01  0.00000E+00
  0.33244E+01  0.10687E+01  0.00000E+00
  0.29990E+01  0.11476E+01  0.00000E+00
  0.30203E+01  0.11465E+01  0.00000E+00
  0.30784E+01  0.11433E+01  0.00000E+00
  0.31578E+01  0.11390E+01  0.00000E+00
  0.32372E+01  0.11346E+01  0.00000E+00
  0.32953E+01  0.11314E+01  0.00000E+00
  0.33166E+01  0.11303E+01  0.00000E+00
  0.29986E+01  0.11674E+01  0.00000E+00
  0.30197E+01  0.11665E+01  0.00000E+00
  0.30774E+01  0.11638E+01  0.00000E+00
  0.31562E+01  0.11601E+01  0.00000E+00
  0.32350E+01  0.11565E+01  0.00000E+00
  0.32926E+01  0.11538E+01  0.00000E+00
  0.33137E+01  0.11528E+01  0.00000E+00
 ZONE I=           7 ,J=           7 , F=POINT
  0.33564E+01  0.81622E+00  0.00000E+00
  0.33725E+01  0.82144E+00  0.00000E+00
  0.34163E+01  0.83568E+00  0.00000E+00
  0.34761E+01  0.85514E+00  0.00000E+00
  0.35359E+01  0.87459E+00  0.00000E+00
  0.35797E+01  0.88884E+00  0.00000E+00
  0.35957E+01  0.89405E+00  0.00000E+00
  0.33536E+01  0.83877E+00  0.00000E+00
  0.33701E+01  0.84347E+00  0.00000E+00
  0.34153E+01  0.85631E+00  0.00000E+00
  0.34770E+01  0.87385E+00  0.00000E+00
  0.35386E+01  0.89139E+00  0.00000E+00
  0.35838E+01  0.90423E+00  0.00000E+00
  0.36003E+01  0.90893E+00  0.00000E+00
  0.33458E+01  0.90038E+00  0.00000E+00
  0.33637E+01  0.90367E+00  0.00000E+00
  0.34126E+01  0.91268E+00  0.00000E+00
  0.34794E+01  0.92498E+00  0.00000E+00
  0.35461E+01  0.93728E+00  0.00000E+00
  0.35950E+01  0.94629E+00  0.00000E+00
  0.36129E+01  0.94959E+00  0.00000E+00
  0.33351E+01  0.98453E+00  0.00000E+00
  0.33549E+01  0.98591E+00  0.00000E+00
  0.34089E+01  0.98968E+00  0.00000E+00
  0.34826E+01  0.99482E+00  0.00000E+00
  0.35564E+01  0.99997E+00  0.00000E+00
  0.36104E+01  0.10037E+01  0.00000E+00
  0.36302E+01  0.10051E+01  0.00000E+00
  0.33244E+01  0.10687E+01  0.00000E+00
  0.33461E+01  0.10681E+01  0.00000E+00
  0.34052E+01  0.10667E+01  0.00000E+00
  0.34859E+01  0.10647E+01  0.00000E+00
  0.35667E+01  0.10627E+01  0.00000E+00
  0.36258E+01  0.10612E+01  0.00000E+00
  0.36474E+01  0.10607E+01  0.00000E+00
  0.33166E+01  0.11303E+01  0.00000E+00
  0.33396E+01  0.11283E+01  0.00000E+00
  0.34025E+01  0.11230E+01  0.00000E+00
  0.34883E+01  0.11158E+01  0.00000E+00
  0.35742E+01  0.11085E+01  0.00000E+00
  0.36370E+01  0.11032E+01  0.00000E+00
  0.36601E+01  0.11013E+01  0.00000E+00
  0.33137E+01  0.11528E+01  0.00000E+00
  0.33372E+01  0.11504E+01  0.00000E+00
  0.34015E+01  0.11437E+01  0.00000E+00
  0.34892E+01  0.11345E+01  0.00000E+00
  0.35769E+01  0.11253E+01  0.00000E+00
  0.36412E+01  0.11186E+01  0.00000E+00
  0.36647E+01  0.11162E+01  0.00000E+00
 ZONE I=           7 ,J=           7 , F=POINT
  0.30260E+00  0.12438E+01  0.00000E+00
  0.32229E+00  0.12440E+01  0.00000E+00
  0.37609E+00  0.12447E+01  0.00000E+00
  0.44958E+00  0.12456E+01  0.00000E+00
  0.52307E+00  0.12466E+01  0.00000E+00
  0.57687E+00  0.12473E+01  0.00000E+00
  0.59656E+00  0.12475E+01  0.00000E+00
  0.30153E+00  0.12605E+01  0.00000E+00
  0.32120E+00  0.12607E+01  0.00000E+00
  0.37492E+00  0.12614E+01  0.00000E+00
  0.44830E+00  0.12623E+01  0.00000E+00
  0.52169E+00  0.12633E+01  0.00000E+00
  0.57541E+00  0.12640E+01  0.00000E+00
  0.59507E+00  0.12642E+01  0.00000E+00
  0.29861E+00  0.13060E+01  0.00000E+00
  0.31820E+00  0.13063E+01  0.00000E+00
  0.37171E+00  0.13070E+01  0.00000E+00
  0.44480E+00  0.13079E+01  0.00000E+00
  0.51790E+00  0.13089E+01  0.00000E+00
  0.57141E+00  0.13096E+01  0.00000E+00
  0.59099E+00  0.13099E+01  0.00000E+00
  0.29462E+00  0.13683E+01  0.00000E+00
  0.31410E+00  0.13686E+01  0.00000E+00
  0.36732E+00  0.13693E+01  0.00000E+00
  0.44002E+00  0.13703E+01  0.00000E+00
  0.51272E+00  0.13712E+01  0.00000E+00
  0.56594E+00  0.13719E+01  0.00000E+00
  0.58542E+00  0.13722E+01  0.00000E+00
  0.29063E+00  0.14306E+01  0.00000E+00
  0.31001E+00  0.14308E+01  0.00000E+00
  0.36294E+00  0.14316E+01  0.00000E+00
  0.43524E+00  0.14326E+01  0.00000E+00
  0.50755E+00  0.14335E+01  0.00000E+00
  0.56048E+00  0.14343E+01  0.00000E+00
  0.57985E+00  0.14345E+01  0.00000E+00
  0.28771E+00  0.14762E+01  0.00000E+00
  0.30701E+00  0.14764E+01  0.00000E+00
  0.35973E+00  0.14772E+01  0.00000E+00
  0.43174E+00  0.14782E+01  0.00000E+00
  0.50376E+00  0.14792E+01  0.00000E+00
  0.55648E+00  0.14799E+01  0.00000E+00
  0.57577E+00  0.14802E+01  0.00000E+00
  0.28665E+00  0.14928E+01  0.00000E+00
  0.30591E+00  0.14931E+01  0.00000E+00
  0.35855E+00  0.14939E+01  0.00000E+00
  0.43046E+00  0.14949E+01  0.00000E+00
  0.50237E+00  0.14959E+01  0.00000E+00
  0.55501E+00  0.14966E+01  0.00000E+00
  0.57428E+00  0.14969E+01  0.00000E+00
 ZONE I=           7 ,J=           7 , F=POINT
  0.59656E+00  0.12475E+01  0.00000E+00
  0.61623E+00  0.12476E+01  0.00000E+00
  0.66998E+00  0.12478E+01  0.00000E+00
  0.74340E+00  0.12480E+01  0.00000E+00
  0.81681E+00  0.12483E+01  0.00000E+00
  0.87056E+00  0.12485E+01  0.00000E+00
  0.89023E+00  0.12486E+01  0.00000E+00
  0.59507E+00  0.12642E+01  0.00000E+00
  0.61473E+00  0.12643E+01  0.00000E+00
  0.66845E+00  0.12645E+01  0.00000E+00
  0.74182E+00  0.12648E+01  0.00000E+00
  0.81520E+00  0.12650E+01  0.00000E+00
  0.86892E+00  0.12652E+01  0.00000E+00
  0.88858E+00  0.12653E+01  0.00000E+00
  0.59099E+00  0.13099E+01  0.00000E+00
  0.61062E+00  0.13099E+01  0.00000E+00
  0.66426E+00  0.13102E+01  0.00000E+00
  0.73753E+00  0.13105E+01  0.00000E+00
  0.81080E+00  0.13108E+01  0.00000E+00
  0.86444E+00  0.13110E+01  0.00000E+00
  0.88407E+00  0.13111E+01  0.00000E+00
  0.58542E+00  0.13722E+01  0.00000E+00
  0.60501E+00  0.13723E+01  0.00000E+00
  0.65854E+00  0.13725E+01  0.00000E+00
  0.73166E+00  0.13729E+01  0.00000E+00
  0.80478E+00  0.13732E+01  0.00000E+00
  0.85831E+00  0.13735E+01  0.00000E+00
  0.87791E+00  0.13735E+01  0.00000E+00
  0.57985E+00  0.14345E+01  0.00000E+00
  0.59940E+00  0.14346E+01  0.00000E+00
  0.65282E+00  0.14349E+01  0.00000E+00
  0.72580E+00  0.14353E+01  0.00000E+00
  0.79877E+00  0.14357E+01  0.00000E+00
  0.85219E+00  0.14359E+01  0.00000E+00
  0.87174E+00  0.14360E+01  0.00000E+00
  0.57577E+00  0.14802E+01  0.00000E+00
  0.59530E+00  0.14803E+01  0.00000E+00
  0.64864E+00  0.14806E+01  0.00000E+00
  0.72150E+00  0.14810E+01  0.00000E+00
  0.79437E+00  0.14814E+01  0.00000E+00
  0.84771E+00  0.14817E+01  0.00000E+00
  0.86723E+00  0.14818E+01  0.00000E+00
  0.57428E+00  0.14969E+01  0.00000E+00
  0.59379E+00  0.14970E+01  0.00000E+00
  0.64711E+00  0.14973E+01  0.00000E+00