 VARIABLES = "X", "Y", "Z"
 ZONE F=FEPOINT, ET=QUADRILATERAL, N=        2674 E=        2436
  -2.4117235769641847       -3.0378790764332075        0.0000000000000000     
  -2.3415780101142842       -3.0417665458281054        0.0000000000000000     
  -2.2463972486879271       -3.0492966254959359        0.0000000000000000     
  -2.1461107991854464       -3.0557599226723089        0.0000000000000000     
  -2.0445095825494488       -3.0597892383079435        0.0000000000000000     
  -1.9425443845636026       -3.0613779517120157        0.0000000000000000     
  -1.8406650658318835       -3.0607256681194839        0.0000000000000000     
  -1.7391700826621750       -3.0580618059207634        0.0000000000000000     
  -1.6382749141208128       -3.0536178422537823        0.0000000000000000     
  -1.5382698251004960       -3.0476379647687919        0.0000000000000000     
  -1.4402607444710751       -3.0406384887679510        0.0000000000000000     
  -1.3483270455930390       -3.0346573029774402        0.0000000000000000     
  -1.2826644512425445       -3.0342678990514149        0.0000000000000000     
  -2.6149395809782159       -2.9414202659203736        0.0000000000000000     
  -2.5552152275511699       -2.9501217864133156        0.0000000000000000     
  -2.4579101441529132       -2.9741853460151031        0.0000000000000000     
  -2.3565556283250162       -2.9599305359767176        0.0000000000000000     
  -2.2582609772706537       -2.9593379018175607        0.0000000000000000     
  -2.1583489537212688       -2.9605765091503278        0.0000000000000000     
  -2.0580178136683345       -2.9615280330128799        0.0000000000000000     
  -1.9575770841823787       -2.9619188813988075        0.0000000000000000     
  -1.8571477709709521       -2.9617775599529423        0.0000000000000000     
  -1.7568048268995291       -2.9611574658361204        0.0000000000000000     
  -1.6566091030332741       -2.9601138465093113        0.0000000000000000     
  -1.5566636707841301       -2.9587293357320372        0.0000000000000000     
  -1.4571717768607229       -2.9574160134740572        0.0000000000000000     
  -1.3578346871276521       -2.9585200807930661        0.0000000000000000     
  -1.2435827921847109       -2.9745354713539540        0.0000000000000000     
  -1.1350181775091843       -2.9520928742049564        0.0000000000000000     
  -1.0441315178085633       -2.9405368639710305        0.0000000000000000     
 -0.97897324683117104       -2.9372949718496337        0.0000000000000000     
  -2.7255317597480295       -2.8519699051829184        0.0000000000000000     
  -2.6529001996935548       -2.8749622713571208        0.0000000000000000     
  -2.5591622879620468       -2.8633700202230781        0.0000000000000000     
  -2.4624134240736528       -2.8643426822232612        0.0000000000000000     
  -2.3622616536509407       -2.8635735351654779        0.0000000000000000     
  -2.2618592876510895       -2.8621794709761517        0.0000000000000000     
  -2.1617583958904927       -2.8620554790515298        0.0000000000000000     
  -2.0617075733365549       -2.8621538105545907        0.0000000000000000     
  -1.9616527149514100       -2.8622054795558083        0.0000000000000000     
  -1.8615986361326726       -2.8621885316209470        0.0000000000000000     
  -1.7615554306427914       -2.8621089122305490        0.0000000000000000     
  -1.6615320955162753       -2.8619749580289442        0.0000000000000000     
  -1.5615253376010068       -2.8618242256645705        0.0000000000000000     
  -1.4613520976393566       -2.8619515577960080        0.0000000000000000     
  -1.3598471365618225       -2.8634683307889519        0.0000000000000000     
  -1.2570519148586072       -2.8643200449866941        0.0000000000000000     
  -1.1557832398221692       -2.8616339486105602        0.0000000000000000     
  -1.0563371840828546       -2.8603161687622238        0.0000000000000000     
 -0.94107129197792783       -2.8749019541645291        0.0000000000000000     
 -0.83367367480183041       -2.8495480352337768        0.0000000000000000     
 -0.74421038846103638       -2.8352173878278895        0.0000000000000000     
 -0.68002697233464293       -2.8293600280811484        0.0000000000000000     
  -2.8294714668137928       -2.7516164260922400        0.0000000000000000     
  -2.7586550478791865       -2.7794825308680795        0.0000000000000000     
  -2.6604845139154785       -2.7668378023813958        0.0000000000000000     
  -2.5624515816937183       -2.7644214528762312        0.0000000000000000     
  -2.4626417779612355       -2.7630406874744402        0.0000000000000000     
  -2.3625102148084922       -2.7626670915575979        0.0000000000000000     
  -2.2623252420932607       -2.7623863021864974        0.0000000000000000     
  -2.1622427276250709       -2.7622680975840850        0.0000000000000000     
  -2.0622273291081168       -2.7622582088869629        0.0000000000000000     
  -1.9622229151528265       -2.7622609344779923        0.0000000000000000     
  -1.8622192375734199       -2.7622598261262170        0.0000000000000000     
  -1.7622163117974792       -2.7622543236558585        0.0000000000000000     
  -1.6622139804577083       -2.7622460195006964        0.0000000000000000     
  -1.5621978818333604       -2.7622527484380450        0.0000000000000000     
  -1.4620708394172335       -2.7623734329980079        0.0000000000000000     
  -1.3617220582724270       -2.7626466448010709        0.0000000000000000     
  -1.2613170793010251       -2.7627671026208036        0.0000000000000000     
  -1.1609864053575998       -2.7627069333074368        0.0000000000000000     
  -1.0594586442945417       -2.7638106947500964        0.0000000000000000     
 -0.95662223364422794       -2.7642414684838426        0.0000000000000000     
 -0.85550530762906785       -2.7609575584403676        0.0000000000000000     
 -0.75657445664208023       -2.7582907608429164        0.0000000000000000     
 -0.64339930844178839       -2.7672062899056251        0.0000000000000000     
 -0.54165628364845531       -2.7411993712004019        0.0000000000000000     
 -0.47720348874101198       -2.7323947925910965        0.0000000000000000     
  -2.9224170888883569       -2.6449031401992085        0.0000000000000000     
  -2.8573788462576410       -2.6766003152729887        0.0000000000000000     
  -2.7611965948411896       -2.6670384961144733        0.0000000000000000     
  -2.6629476716917075       -2.6649095365206952        0.0000000000000000     
  -2.5626289396713937       -2.6630533774021230        0.0000000000000000     
  -2.4624151985715903       -2.6625000286126399        0.0000000000000000     
  -2.3623225597422279       -2.6623377791700489        0.0000000000000000     
  -2.2622858005568052       -2.6622906806702233        0.0000000000000000     
  -2.1622695596699657       -2.6622712931085233        0.0000000000000000     
  -2.0622652233431351       -2.6622664069213617        0.0000000000000000     
  -1.9622646737208140       -2.6622660551790815        0.0000000000000000     
  -1.8622645297818696       -2.6622660024148486        0.0000000000000000     
  -1.7622644129037597       -2.6622658180495691        0.0000000000000000     
  -1.6622638895343613       -2.6622659746462589        0.0000000000000000     
  -1.5622587221937394       -2.6622707948941877        0.0000000000000000     
  -1.4622383126640126       -2.6622895816577685        0.0000000000000000     
  -1.3621996116580839       -2.6623200781985896        0.0000000000000000     
  -1.2621506413661352       -2.6623494729159303        0.0000000000000000     
  -1.1620149597161462       -2.6624527053060709        0.0000000000000000     
  -1.0616696642309995       -2.6626813331515806        0.0000000000000000     
 -0.96126908181537352       -2.6627444862770981        0.0000000000000000     
 -0.86097153396996684       -2.6625599853758435        0.0000000000000000     
 -0.75961637896594980       -2.6631477159558239        0.0000000000000000     
 -0.65718500232908739       -2.6629167682950614        0.0000000000000000     
 -0.55601450121115237       -2.6608993935466412        0.0000000000000000     
 -0.44164572690316917       -2.6685895633328345        0.0000000000000000     
 -0.34067502204092409       -2.6408455919656011        0.0000000000000000     
 -0.27675438715281686       -2.6308264847795657        0.0000000000000000     
  -2.9352544711570223       -2.5816782406034435        0.0000000000000000     
  -2.8581972673958540       -2.5675263039899399        0.0000000000000000     
  -2.7627016796188610       -2.5648222989445624        0.0000000000000000     
  -2.6626729699101142       -2.5630743608404427        0.0000000000000000     
  -2.5624187334709583       -2.5624986843666275        0.0000000000000000     
  -2.4623033162905643       -2.5623150652962123        0.0000000000000000     
  -2.3622748828396309       -2.5622765666804361        0.0000000000000000     
  -2.2622684051906989       -2.5622686596792521        0.0000000000000000     
  -2.1622666926950358       -2.5622667668003469        0.0000000000000000     
  -2.0622661726263751       -2.5622662073617937        0.0000000000000000     
  -1.9622661087932163       -2.5622661417070351        0.0000000000000000     
  -1.8622661682749682       -2.5622661919152452        0.0000000000000000     
  -1.7622662388349439       -2.5622662222611670        0.0000000000000000     
  -1.6622662186713106       -2.5622662860654057        0.0000000000000000     
  -1.5622657475945676       -2.5622667489087374        0.0000000000000000     
  -1.4622642957045280       -2.5622680914510489        0.0000000000000000     
  -1.3622616294598091       -2.5622703956562964        0.0000000000000000     
  -1.2622547870855958       -2.5622764104615952        0.0000000000000000     
  -1.1622340491456080       -2.5622942438662939        0.0000000000000000     
  -1.0621958056140488       -2.5623219464070792        0.0000000000000000     
 -0.96214795190442426       -2.5623458652951898        0.0000000000000000     
 -0.86201858584251057       -2.5624261050592527        0.0000000000000000     
 -0.76167863549793513       -2.5626112036538240        0.0000000000000000     
 -0.66109337709377647       -2.5628296044907115        0.0000000000000000     
 -0.55939216946703263       -2.5635993458822135        0.0000000000000000     
 -0.45684699187298344       -2.5631620092016054        0.0000000000000000     
 -0.35579834443405794       -2.5606082829305183        0.0000000000000000     
 -0.24183642189916271       -2.5664153819664235        0.0000000000000000     
 -0.14205128959470187       -2.5371779588877277        0.0000000000000000     
  -7.9368795640012674E-002  -2.5260178717974000        0.0000000000000000     
  -3.0264443693984950       -2.4431108053495811        0.0000000000000000     
  -2.9641646048729049       -2.4803372565274331        0.0000000000000000     
  -2.8620233969166780       -2.4670897741370417        0.0000000000000000     
  -2.7626227130663552       -2.4633688446582980        0.0000000000000000     
  -2.6624264626017169       -2.4625199119379735        0.0000000000000000     
  -2.5623046129959008       -2.4623156468567897        0.0000000000000000     
  -2.4622735754558862       -2.4622750381880847        0.0000000000000000     
  -2.3622667601396325       -2.4622669084773339        0.0000000000000000     
  -2.2622644378675432       -2.4622644684386938        0.0000000000000000     
  -2.1622624483430961       -2.4622625224179360        0.0000000000000000     
  -2.0622614968794428       -2.4622617188555682        0.0000000000000000     
  -1.9622623694113990       -2.4622628346838642        0.0000000000000000     
  -1.8622642896028585       -2.4622648305594503        0.0000000000000000     
  -1.7622661839248845       -2.4622657935191126        0.0000000000000000     
  -1.6622680616075789       -2.4622648379180547        0.0000000000000000     
  -1.5622699537774725       -2.4622628649178173        0.0000000000000000     
  -1.4622708144421546       -2.4622617975317080        0.0000000000000000     
  -1.3622697980372818       -2.4622627272173703        0.0000000000000000     
  -1.2622674309884718       -2.4622650632786067        0.0000000000000000     
  -1.1622645988957516       -2.4622677635380943        0.0000000000000000     
  -1.0622614588820793       -2.4622704593389915        0.0000000000000000     
 -0.96225470029621740       -2.4622760168934290        0.0000000000000000     
 -0.86223371601799625       -2.4622927765551967        0.0000000000000000     
 -0.76218063771096878       -2.4623323410020310        0.0000000000000000     
 -0.66201749056600323       -2.4624502047699450        0.0000000000000000     
 -0.56164459393739175       -2.4626545668130149        0.0000000000000000     
 -0.46105281143979093       -2.4628398576969124        0.0000000000000000     
 -0.35938618357193231       -2.4634346841873849        0.0000000000000000     
 -0.25699891007403264       -2.4626203325390481        0.0000000000000000     
 -0.15664006620038762       -2.4594762556588563        0.0000000000000000     
  -4.6871796923719906E-002  -2.4639339478688727        0.0000000000000000     
   3.0006187918647047E-002  -2.4421468636306995        0.0000000000000000     
  -3.0310103458693143       -2.3773751696559380        0.0000000000000000     
  -2.9565278503276371       -2.3669074324714270        0.0000000000000000     
  -2.8626229486698933       -2.3646668495809484        0.0000000000000000     
  -2.7625293794085377       -2.3628150078904619        0.0000000000000000     
  -2.6623239739062132       -2.3623482989018783        0.0000000000000000     
  -2.5622751610279764       -2.3622769413317264        0.0000000000000000     
  -2.4622667795019457       -2.3622669129279648        0.0000000000000000     
  -2.3622605465195550       -2.3622605591580776        0.0000000000000000     
  -2.2622425069939798       -2.3622426749387881        0.0000000000000000     
  -2.1622146073292750       -2.3622159217363725        0.0000000000000000     
  -2.0622005952135707       -2.3622056687162853        0.0000000000000000     
  -1.9622164038616825       -2.3622288702789449        0.0000000000000000     
  -1.8622443156456621       -2.3622652021342523        0.0000000000000000     
  -1.7622638160830522       -2.3622817151057260        0.0000000000000000     
  -1.6622827087440937       -2.3622652049607713        0.0000000000000000     
  -1.5623100927430682       -2.3622288763756840        0.0000000000000000     
  -1.4623270973895539       -2.3622056777518678        0.0000000000000000     
  -1.3623153742055110       -2.3622159355284507        0.0000000000000000     
  -1.2622892028972488       -2.3622426968469963        0.0000000000000000     
  -1.1622719203237908       -2.3622604948935084        0.0000000000000000     
  -1.0622666648559715       -2.3622658706817381        0.0000000000000000     
 -0.96226546627510279       -2.3622670284190570        0.0000000000000000     
 -0.86226350877235114       -2.3622687767203723        0.0000000000000000     
 -0.76225614352261517       -2.3622752301846881        0.0000000000000000     
 -0.66223310381440548       -2.3622940009179940        0.0000000000000000     
 -0.56217822520292893       -2.3623342317244620        0.0000000000000000     
 -0.46201551841288446       -2.3624454761593259        0.0000000000000000     
 -0.36165062830715833       -2.3626244331524688        0.0000000000000000     
 -0.26109735273003359       -2.3627556504863336        0.0000000000000000     
 -0.15953269262620301       -2.3633881117117537        0.0000000000000000     
  -5.6346498420497500E-002  -2.3644092438896682        0.0000000000000000     
   6.2637250050597323E-002  -2.3732497927246343        0.0000000000000000     
  0.16217562720242512       -2.3414789542197614        0.0000000000000000     
  0.22428016412484761       -2.3290574992198603        0.0000000000000000     
  -3.0404126627262857       -2.2855274376625743        0.0000000000000000     
  -2.9571858700100684       -2.2676392584028728        0.0000000000000000     
  -2.8618388875536342       -2.2632113397441795        0.0000000000000000     
  -2.7623421946820006       -2.2624629005578445        0.0000000000000000     
  -2.6622870406170271       -2.2622949163717303        0.0000000000000000     
  -2.5622684555631499       -2.2622688145165877        0.0000000000000000     
  -2.4622644559320972       -2.2622644565552581        0.0000000000000000     
  -2.3622426741986655       -2.2622425078749431        0.0000000000000000     
  -2.2621350681568768       -2.2621350682166796        0.0000000000000000     
  -2.1619323588553674       -2.2619418208746449        0.0000000000000000     
  -2.0618406727687151       -2.2618973026905760        0.0000000000000000     
  -1.9619992416427205       -2.2621660465840430        0.0000000000000000     
  -1.8621952669997022       -2.2625127833788370        0.0000000000000000     
  -1.7622349654472660       -2.2626519916041485        0.0000000000000000     
  -1.6622583032098208       -2.2625128483754944        0.0000000000000000     
  -1.5624373484663323       -2.2621662046367681        0.0000000000000000     
  -1.4626165173660544       -2.2618975148864680        0.0000000000000000     
  -1.3625654817986022       -2.2619419872817046        0.0000000000000000     
  -1.2623889764405514       -2.2621351417128706        0.0000000000000000     
  -1.1622889827701610       -2.2622425118391232        0.0000000000000000     
  -1.0622682369552361       -2.2622642672401811        0.0000000000000000     
 -0.96226632346392282       -2.2622662375458216        0.0000000000000000     
 -0.86226609286519618       -2.2622664614586903        0.0000000000000000     
 -0.76226546869162470       -2.2622670363503503        0.0000000000000000     
 -0.66226347741692215       -2.2622688060461300        0.0000000000000000     
 -0.56225607150674506       -2.2622751807542145        0.0000000000000000     
 -0.46223320013820507       -2.2622932689738540        0.0000000000000000     
 -0.36217902575783734       -2.2623317161516985        0.0000000000000000     
 -0.26200175126514935       -2.2624583795898188        0.0000000000000000     
 -0.16138694700387921       -2.2628871116696905        0.0000000000000000     
  -5.9152923633366591E-002  -2.2641613747288507        0.0000000000000000     
   4.3913931798819340E-002  -2.2638524695202373        0.0000000000000000     
  0.14460382917152517       -2.2606307813577815        0.0000000000000000     
  0.25559424350223353       -2.2651108855843098        0.0000000000000000     
  0.33206939410799374       -2.2418416939510317        0.0000000000000000     
  -3.0492182818156421       -2.1873311802683384        0.0000000000000000     
  -2.9590285840943404       -2.1680960688413387        0.0000000000000000     
  -2.8618507290395767       -2.1630345628976007        0.0000000000000000     
  -2.7622518935208258       -2.1623363903322841        0.0000000000000000     
  -2.6622702916351138       -2.1622738908660568        0.0000000000000000     
  -2.5622667217413269       -2.1622668286437876        0.0000000000000000     
  -2.4622625210471338       -2.1622624514594868        0.0000000000000000     
  -2.3622159217448364       -2.1622146077958977        0.0000000000000000     
  -2.2619418209828233       -2.1619323598240823        0.0000000000000000     
  -2.1613627426340929       -2.1613627439207925        0.0000000000000000     
  -2.0613492415583812       -2.1616211084107650        0.0000000000000000     
  -1.9622379226438431       -2.1634062327104195        0.0000000000000000     
  -1.8626737348955946       -2.1651478501731369        0.0000000000000000     
  -1.7620806045124384       -2.1656943418060846        0.0000000000000000     
  -1.6612514593625995       -2.1651485446358896        0.0000000000000000     
  -1.5614273171575512       -2.1634087067725152        0.0000000000000000     
  -1.4625313662003672       -2.1616248735791377        0.0000000000000000     
  -1.3629270731441505       -2.1613655374951777        0.0000000000000000     
  -1.2625512326278814       -2.1619333261921123        0.0000000000000000     
  -1.1623134277474341       -2.1622147308812503        0.0000000000000000     
  -1.0622699460541278       -2.1622624209726218        0.0000000000000000     
 -0.96226642120667871       -2.1622661387922855        0.0000000000000000     
 -0.86226627554435697       -2.1622662884659465        0.0000000000000000     
 -0.76226624152404232       -2.1622663210252409        0.0000000000000000     
 -0.66226609066188358       -2.1622664625947605        0.0000000000000000     
 -0.56226546967575997       -2.1622670276785447        0.0000000000000000     
 -0.46226348579515542       -2.1622687686500992        0.0000000000000000     
 -0.36225524716077484       -2.1622759335694237        0.0000000000000000     
 -0.26221522149241899       -2.1623103605144474        0.0000000000000000     
 -0.16203381679886839       -2.1624533312216241        0.0000000000000000     
  -6.1602397291994272E-002  -2.1627044570169596        0.0000000000000000     
   3.9032989562415396E-002  -2.1628977384516870        0.0000000000000000     
  0.14074435062565230       -2.1635568118781530        0.0000000000000000     
  0.24415816326009321       -2.1643926050378788        0.0000000000000000     
  0.36348579832851352       -2.1719241202718527        0.0000000000000000     
  0.46172816357026381       -2.1384655720746260        0.0000000000000000     
  0.52274360701117517       -2.1245534914755519        0.0000000000000000     
  -3.0557703624496666       -2.0866942947601550        0.0000000000000000     
  -2.9605658858907833       -2.0680207850033496        0.0000000000000000     
  -2.8620274423610734       -2.0630125141888200        0.0000000000000000     
  -2.7622491983018715       -2.0623193948115195        0.0000000000000000     
  -2.6622660460002341       -2.0622687008480081        0.0000000000000000     
  -2.5622661966922808       -2.0622662474285343        0.0000000000000000     
  -2.4622617194560417       -2.0622614999358788        0.0000000000000000     
  -2.3622056719491815       -2.0622006105345685        0.0000000000000000     
  -2.2618973101585365       -2.0618407230532494        0.0000000000000000     
  -2.1616211178763343       -2.0613493295249725        0.0000000000000000     
  -2.0642750031672175       -2.0642750714668905        0.0000000000000000     
  -1.9678469547533257       -2.0718800688222152        0.0000000000000000     
  -1.8655453083696469       -2.0766101650111009        0.0000000000000000     
  -1.7619794869933754       -2.0773469305967289        0.0000000000000000     
  -1.6564738497529305       -2.0766113691639299        0.0000000000000000     
  -1.5518731639932797       -2.0719000439734270        0.0000000000000000     
  -1.4569796093193867       -2.0643162452098349        0.0000000000000000     
  -1.3621240151929352       -2.0613768175506388        0.0000000000000000     
  -1.2625330697489772       -2.0618463762936443        0.0000000000000000     
  -1.1623197665224223       -2.0622011551983279        0.0000000000000000     
  -1.0622705917007189       -2.0622615185716344        0.0000000000000000     
 -0.96226644776405712       -2.0622661078206108        0.0000000000000000     
 -0.86226628504684788       -2.0622662792346556        0.0000000000000000     
 -0.76226628052213297       -2.0622662837903789        0.0000000000000000     
 -0.66226627286586859       -2.0622662911436067        0.0000000000000000     
 -0.56226624163232175       -2.0622663207035106        0.0000000000000000     
 -0.46226607612663922       -2.0622664762544223        0.0000000000000000     
 -0.36226497895272103       -2.0622675015990004        0.0000000000000000     
 -0.26225799649153519       -2.0622737890226790        0.0000000000000000     
 -0.16223336622019366       -2.0622940558467930        0.0000000000000000     
  -6.2174651014979675E-002  -2.0623369231915172        0.0000000000000000     
   3.8012076783713600E-002  -2.0624683770707568        0.0000000000000000     
  0.13864934317830799       -2.0628899658961140        0.0000000000000000     
  0.24093414289858908       -2.0640651349559480        0.0000000000000000     
  0.34397292349552044       -2.0634570518608779        0.0000000000000000     
  0.44424614295877629       -2.0593975438197143        0.0000000000000000     
  0.55330436355029344       -2.0600998690815695        0.0000000000000000     
  0.62817238030512990       -2.0346967614856131        0.0000000000000000     
  -3.0597914761359224       -1.9850595239674862        0.0000000000000000     
  -2.9615294580559519       -1.9676718488728902        0.0000000000000000     
  -2.8621532718156737       -1.9629713748630135        0.0000000000000000     
  -2.7622571663583302       -1.9623159395622443        0.0000000000000000     
  -2.6622659114303340       -1.9622681401338327        0.0000000000000000     
  -2.5622661404224836       -1.9622661745722112        0.0000000000000000     
  -2.4622628524277754       -1.9622623769174850        0.0000000000000000     
  -2.3622289596553507       -1.9622166434231689        0.0000000000000000     
  -2.2621662951992865       -1.9620004901618222        0.0000000000000000     
  -2.1634066335215154       -1.9622406870900999        0.0000000000000000     
  -2.0718803781082467       -1.9678496534951946        0.0000000000000000     
  -1.4458336372838900       -1.9682225337299852        0.0000000000000000     
  -1.3597323243892796       -1.9623646529678178        0.0000000000000000     
  -1.2622022114981670       -1.9620203903411297        0.0000000000000000     
  -1.1622930657548087       -1.9622183482993529        0.0000000000000000     
  -1.0622693644892716       -1.9622624610527146        0.0000000000000000     
 -0.96226641686096837       -1.9622661362750884        0.0000000000000000     
 -0.86226628490581225       -1.9622662794410977        0.0000000000000000     
 -0.76226628215325787       -1.9622662822032262        0.0000000000000000     
 -0.66226628190645298       -1.9622662824436721        0.0000000000000000     
 -0.56226628039365611       -1.9622662839149749        0.0000000000000000     
 -0.46226626681007549       -1.9622662970808940        0.0000000000000000     
 -0.36226614113190891       -1.9622664167701387        0.0000000000000000     
 -0.26226551918526742       -1.9622669892408213        0.0000000000000000     
 -0.16226345894199309       -1.9622688103783685        0.0000000000000000     
  -6.2254976384385735E-002  -1.9622761399419648        0.0000000000000000     
   3.7785826228090513E-002  -1.9623105053152303        0.0000000000000000     
  0.13796989625808767       -1.9624498548866642        0.0000000000000000     
  0.23840394983837679       -1.9626835947432963        0.0000000000000000     
  0.33901402339027292       -1.9628033083759979        0.0000000000000000     
  0.44051126150437464       -1.9630643595514938        0.0000000000000000     
  0.54303108512982778       -1.9627670124228482        0.0000000000000000     
  0.65759576273489362       -1.9669817747617442        0.0000000000000000     
  0.73350389791929105       -1.9405140115664836        0.0000000000000000     
  -3.0613781121785895       -1.8830915536888508        0.0000000000000000     
  -2.9619190420568446       -1.8672288806640207        0.0000000000000000     
  -2.8622055404596822       -1.8629164372057854        0.0000000000000000     
  -2.7622609265785814       -1.8623122721682110        0.0000000000000000     
  -2.6622660400028697       -1.8622679980666716        0.0000000000000000     
  -2.5622662032955992       -1.8622662266763534        0.0000000000000000     
  -2.4622650064601688       -1.8622642253144330        0.0000000000000000     
  -2.3622664853842110       -1.8622451889375318        0.0000000000000000     
  -2.2625173543098898       -1.8622091758494335        0.0000000000000000     
  -2.1651564595017927       -1.8627196066693796        0.0000000000000000     
  -2.0766179867982180       -1.8655990935515649        0.0000000000000000     
  -1.4408152413363133       -1.8668871251775141        0.0000000000000000     
  -1.3579266020046850       -1.8630674356552785        0.0000000000000000     
  -1.2618516454843476       -1.8622619030076408        0.0000000000000000     
  -1.1622567507100874       -1.8622500229667993        0.0000000000000000     
  -1.0622673766169883       -1.8622645281999108        0.0000000000000000     
 -0.96226636013305378       -1.8622662063999211        0.0000000000000000     
 -0.86226628408668160       -1.8622662806621006        0.0000000000000000     
 -0.76226628219692438       -1.8622662821650149        0.0000000000000000     
 -0.66226628217093142       -1.8622662821850191        0.0000000000000000     
 -0.56226628209267804       -1.8622662822621572        0.0000000000000000     
 -0.46226628100159084       -1.8622662833282038        0.0000000000000000     
 -0.36226627369759112       -1.8622662903642322        0.0000000000000000     
 -0.26226624219219363       -1.8622663202380030        0.0000000000000000     
 -0.16226607428707843       -1.8622664775268205        0.0000000000000000     
  -6.2264966146018702E-002  -1.8622675031824039        0.0000000000000000     
   3.7742072049236776E-002  -1.8622737254805375        0.0000000000000000     
  0.13776683306229257       -1.8622935548880653        0.0000000000000000     
  0.23782494563164827       -1.8623339249281117        0.0000000000000000     
  0.33800200257536400       -1.8624467315605395        0.0000000000000000     
  0.43858459588826115       -1.8627852063661949        0.0000000000000000     
  0.54069518230190572       -1.8637838399679267        0.0000000000000000     