 VARIABLES = "X", "Y", "Z", "Material ID"
 ZONE F=FEPOINT, ET=QUADRILATERAL, N=        4599 E=        4226
   33.592577910773848       -28.073372936523974        0.0000000000000000                1
   34.981758754187375       -28.019192388853011        0.0000000000000000                1
   35.867852393784538       -27.939741536978854        0.0000000000000000                1
   36.840025972669736       -27.910436396092038        0.0000000000000000                1
   37.836850897589599       -27.901701787383850        0.0000000000000000                1
   38.842743383071856       -27.899741962545630        0.0000000000000000                1
   39.849203257249989       -27.898988894297354        0.0000000000000000                1
   40.851985009141522       -27.897194788799844        0.0000000000000000                1
   41.855562914446743       -27.893070402995090        0.0000000000000000                1
   42.861385354249194       -27.887186031864218        0.0000000000000000                1
   43.866462577245862       -27.886485177845572        0.0000000000000000                1
   44.858517246078861       -27.906915439448429        0.0000000000000000                1
   45.841420873444108       -27.915634900832345        0.0000000000000000                1
   46.825996394563248       -27.902887606672589        0.0000000000000000                1
   47.820228539509472       -27.881988687493067        0.0000000000000000                1
   48.827008617234114       -27.884610315857376        0.0000000000000000                1
   49.833254790831454       -27.892044174019258        0.0000000000000000                1
   50.836339787842618       -27.896916826683114        0.0000000000000000                1
   51.837118095457932       -27.899010410243434        0.0000000000000000                1
   52.837083515456762       -27.899679307956784        0.0000000000000000                1
   53.837961048327784       -27.899844713037727        0.0000000000000000                1
   54.843242710627493       -27.899876971210379        0.0000000000000000                1
   55.848499242958148       -27.899881991708980        0.0000000000000000                1
   56.849228307146461       -27.899882620735308        0.0000000000000000                1
   57.848609688006057       -27.899882684630409        0.0000000000000000                1
   58.847607126821060       -27.899882689923206        0.0000000000000000                1
   59.846506127203071       -27.899882690282492        0.0000000000000000                1
   60.845383281408509       -27.899882690302565        0.0000000000000000                1
   61.844256331778361       -27.899882690303492        0.0000000000000000                1
   62.843128817336250       -27.899882690303528        0.0000000000000000                1
   63.842001867705200       -27.899882690303528        0.0000000000000000                1
   64.840879021890814       -27.899882690303528        0.0000000000000000                1
   65.839778021919017       -27.899882690303528        0.0000000000000000                1
   66.838775455550419       -27.899882690303528        0.0000000000000000                1
   67.838156774320979       -27.899882690303528        0.0000000000000000                1
   68.838885234030613       -27.899882690303528        0.0000000000000000                1
   69.844137016364357       -27.899882690303528        0.0000000000000000                1
   70.849388798698143       -27.899882690303528        0.0000000000000000                1
   71.850117258407778       -27.899882690303528        0.0000000000000000                1
   72.849498577178110       -27.899882690303528        0.0000000000000000                1
   73.848496010804880       -27.899882690303528        0.0000000000000000                1
   74.847395010762867       -27.899882690303528        0.0000000000000000                1
   75.846272164051925       -27.899882690303528        0.0000000000000000                1
   76.845145204808460       -27.899882690303528        0.0000000000000000                1
   77.844017603935640       -27.899882690303528        0.0000000000000000                1
   78.842890003062791       -27.899882690303528        0.0000000000000000                1
   79.841763043819341       -27.899882690303528        0.0000000000000000                1
   80.840640197108442       -27.899882690303528        0.0000000000000000                1
   81.839539197066472       -27.899882690303528        0.0000000000000000                1
   82.838536630693270       -27.899882690303528        0.0000000000000000                1
   83.837917949463616       -27.899882690303528        0.0000000000000000                1
   84.838646409173279       -27.899882690303528        0.0000000000000000                1
   85.843898191507094       -27.899882690303528        0.0000000000000000                1
   86.849149973840881       -27.899882690303528        0.0000000000000000                1
   87.849878433550543       -27.899882690303528        0.0000000000000000                1
   88.849259752320890       -27.899882690303528        0.0000000000000000                1
   89.848257185947702       -27.899882690303528        0.0000000000000000                1
   90.847156185905732       -27.899882690303528        0.0000000000000000                1
   91.846033339194818       -27.899882690303528        0.0000000000000000                1
   92.844906379951368       -27.899882690303528        0.0000000000000000                1
   93.843778779078562       -27.899882690303528        0.0000000000000000                1
   94.842651178205699       -27.899882690303521        0.0000000000000000                1
   95.841524218962164       -27.899882690303393        0.0000000000000000                1
   96.840401372249403       -27.899882690300544        0.0000000000000000                1
   97.839300372174492       -27.899882690246955        0.0000000000000000                1
   98.838297805300499       -27.899882689390296        0.0000000000000000                1
   99.837679117669708       -27.899882677748899        0.0000000000000000                1
   100.83840750869673       -27.899882543392536        0.0000000000000000                1
   101.84365867296648       -27.899881228816827        0.0000000000000000                1
   102.84890579130983       -27.899870354746586        0.0000000000000000                1
   103.84960468383473       -27.899794584320688        0.0000000000000000                1
   104.84882760264635       -27.899351652761542        0.0000000000000000                1
   105.84709825520868       -27.897186682541374        0.0000000000000000                1
   106.84306909975385       -27.888336542402453        0.0000000000000000                1
   107.83118256517838       -27.857765859295704        0.0000000000000000                1
   108.79226288883488       -27.765777312024873        0.0000000000000000                1
   109.64364329361739       -27.517232837561718        0.0000000000000000                1
   33.575941170603890       -26.939378126306014        0.0000000000000000                1
   34.515762575292008       -27.079017424907690        0.0000000000000000                1
   35.621312704581683       -26.959044707450790        0.0000000000000000                1
   36.653941851187390       -26.915662512745318        0.0000000000000000                1
   37.671519899718263       -26.902199294513071        0.0000000000000000                1
   38.683025499958831       -26.899094324811415        0.0000000000000000                1
   39.690393813657529       -26.897594141858921        0.0000000000000000                1
   40.696574254594601       -26.893424758255350        0.0000000000000000                1
   41.706459124005967       -26.883279367237822        0.0000000000000000                1
   42.723538606979567       -26.865867651801970        0.0000000000000000                1
   43.746484589290318       -26.853565126634308        0.0000000000000000                1
   44.726012307690297       -26.933413075907424        0.0000000000000000                1
   45.678238473658098       -26.962712800344214        0.0000000000000000                1
   46.637110700525312       -26.919644323626905        0.0000000000000000                1
   47.623174380145734       -26.839072765864337        0.0000000000000000                1
   48.652518241716955       -26.858338320282446        0.0000000000000000                1
   49.671013704575849       -26.880369177431600        0.0000000000000000                1
   50.680122822011135       -26.892634585951157        0.0000000000000000                1
   51.683792564339612       -26.897707579101070        0.0000000000000000                1
   52.685052699937060       -26.899353342146433        0.0000000000000000                1
   53.686023036970809       -26.899778030312390        0.0000000000000000                1
   54.688041494256119       -26.899865837974279        0.0000000000000000                1
   55.689992026779315       -26.899880473514973        0.0000000000000000                1
   56.690583300777348       -26.899882451408967        0.0000000000000000                1
   57.690442246762920       -26.899882669305793        0.0000000000000000                1
   58.690029894835646       -26.899882688969438        0.0000000000000000                1
   59.689538910571557       -26.899882690429237        0.0000000000000000                1
   60.689029564276737       -26.899882690518719        0.0000000000000000                1
   61.688516732982151       -26.899882690523263        0.0000000000000000                1
   62.688003427201473       -26.899882690523455        0.0000000000000000                1
   63.687490595902347       -26.899882690523462        0.0000000000000000                1
   64.686981249517629       -26.899882690523462        0.0000000000000000                1
   65.686490263790461       -26.899882690523462        0.0000000000000000                1
   66.686077892240846       -26.899882690523462        0.0000000000000000                1
   67.685936622414715       -26.899882690523462        0.0000000000000000                1
   68.686525961129362       -26.899882690523462        0.0000000000000000                1
   69.688462440783397       -26.899882690523462        0.0000000000000000                1
   70.690398920437389       -26.899882690523462        0.0000000000000000                1
   71.690988259152064       -26.899882690523462        0.0000000000000000                1
   72.690846989325792       -26.899882690523462        0.0000000000000000                1
   73.690434617773235       -26.899882690523462        0.0000000000000000                1
   74.689943631998290       -26.899882690523462        0.0000000000000000                1
   75.689434284961138       -26.899882690523462        0.0000000000000000                1
   76.688921446248784       -26.899882690523462        0.0000000000000000                1
   77.688408070602037       -26.899882690523462        0.0000000000000000                1
   78.687894694955247       -26.899882690523462        0.0000000000000000                1
   79.687381856242936       -26.899882690523462        0.0000000000000000                1
   80.686872509205784       -26.899882690523462        0.0000000000000000                1
   81.686381523430853       -26.899882690523462        0.0000000000000000                1
   82.685969151878339       -26.899882690523462        0.0000000000000000                1
   83.685827882052052       -26.899882690523462        0.0000000000000000                1
   84.686417220766742       -26.899882690523462        0.0000000000000000                1
   85.688353700420748       -26.899882690523462        0.0000000000000000                1
   86.690290180074783       -26.899882690523462        0.0000000000000000                1
   87.690879518789458       -26.899882690523462        0.0000000000000000                1
   88.690738248963200       -26.899882690523462        0.0000000000000000                1
   89.690325877410700       -26.899882690523462        0.0000000000000000                1
   90.689834891635755       -26.899882690523462        0.0000000000000000                1
   91.689325544598660       -26.899882690523462        0.0000000000000000                1
   92.688812705886306       -26.899882690523462        0.0000000000000000                1
   93.688299330239516       -26.899882690523462        0.0000000000000000                1
   94.687785954592727       -26.899882690523455        0.0000000000000000                1
   95.687273115880345       -26.899882690523366        0.0000000000000000                1
   96.686763768842155       -26.899882690521107        0.0000000000000000                1
   97.686272783047542       -26.899882690474247        0.0000000000000000                1
   98.685860411175298       -26.899882689654589        0.0000000000000000                1
   99.685719137036870       -26.899882677574020        0.0000000000000000                1
   100.68630842751263       -26.899882527815681        0.0000000000000000                1
   101.68824446091966       -26.899880970350427        0.0000000000000000                1
   102.69017753691526       -26.899867431156849        0.0000000000000000                1
   103.69074551787131       -26.899769525589040        0.0000000000000000                1
   104.69049397560815       -26.899184262938135        0.0000000000000000                1
   105.68961070498280       -26.896314497412515        0.0000000000000000                1
   106.68743478485574       -26.884881040033353        0.0000000000000000                1
   107.68178638791709       -26.848307491248196        0.0000000000000000                1
   108.66803373534162       -26.756137393681616        0.0000000000000000                1
   109.64311635285831       -26.582693505844510        0.0000000000000000                1
   33.630556827580705       -26.311596214104714        0.0000000000000000                1
   34.384625829858550       -25.972659965002546        0.0000000000000000                1
   35.479274354053018       -25.951450674611788        0.0000000000000000                1
   36.526621985459776       -25.919969317540495        0.0000000000000000                1
   37.566179408145580       -25.904189724133616        0.0000000000000000                1
   38.591174703224056       -25.899024810744070        0.0000000000000000                1
   39.604847899928757       -25.896253863313618        0.0000000000000000                1
   40.615632783816217       -25.889780827905778        0.0000000000000000                1
   41.631273145960485       -25.873472339820442        0.0000000000000000                1
   42.659588890658945       -25.835531640822765        0.0000000000000000                1
   43.745022005600838       -25.733445340099284        0.0000000000000000                1
   44.693286751442194       -26.025298442736140        0.0000000000000000                1
   45.575240458357882       -26.100277027839958        0.0000000000000000                1
   46.482666925646100       -25.985095536109956        0.0000000000000000                1
   47.443196135721237       -25.695725637668495        0.0000000000000000                1
   48.551636699385860       -25.819972996220624        0.0000000000000000                1
   49.582226448989417       -25.867634882757809        0.0000000000000000                1
   50.595286251126069       -25.888052096781532        0.0000000000000000                1
   51.601157795849851       -25.896181454778002        0.0000000000000000                1
   52.603421788865766       -25.898922051352038        0.0000000000000000                1
   53.604355819183013       -25.899678022811671        0.0000000000000000                1
   54.605148109021670       -25.899846994790259        0.0000000000000000                1
   55.605808207900104       -25.899877589512663        0.0000000000000000                1
   56.606058510766040       -25.899882091796162        0.0000000000000000                1
   57.606033689139281       -25.899882632705850        0.0000000000000000                1
   58.605893663035040       -25.899882686007036        0.0000000000000000                1
   59.605718370240773       -25.899882690333573        0.0000000000000000                1
   60.605534747786422       -25.899882690623961        0.0000000000000000                1
   61.605349571088404       -25.899882690640130        0.0000000000000000                1
   62.605164189084583       -25.899882690640879        0.0000000000000000                1
   63.604979012369895       -25.899882690640901        0.0000000000000000                1
   64.604795389615077       -25.899882690640901        0.0000000000000000                1
   65.604620092340880       -25.899882690640901        0.0000000000000000                1
   66.604480011130889       -25.899882690640901        0.0000000000000000                1
   67.604454633208945       -25.899882690640901        0.0000000000000000                1
   68.604700357013343       -25.899882690640901        0.0000000000000000                1
   69.605329965961502       -25.899882690640901        0.0000000000000000                1
   70.605959574909690       -25.899882690640901        0.0000000000000000                1
   71.606205298714059       -25.899882690640901        0.0000000000000000                1
   72.606179920792073       -25.899882690640901        0.0000000000000000                1
   73.606039839581200       -25.899882690640901        0.0000000000000000                1
   74.605864542291386       -25.899882690640901        0.0000000000000000                1
   75.605680919304959       -25.899882690640901        0.0000000000000000                1
   76.605495739756961       -25.899882690640901        0.0000000000000000                1
   77.605310329280940       -25.899882690640901        0.0000000000000000                1
   78.605124918804961       -25.899882690640901        0.0000000000000000                1
   79.604939739256977       -25.899882690640901        0.0000000000000000                1
   80.604756116270508       -25.899882690640901        0.0000000000000000                1
   81.604580818980708       -25.899882690640901        0.0000000000000000                1
   82.604440737769849       -25.899882690640901        0.0000000000000000                1
   83.604415359847835       -25.899882690640901        0.0000000000000000                1
   84.604661083652232       -25.899882690640901        0.0000000000000000                1
   85.605290692600420       -25.899882690640901        0.0000000000000000                1
   86.605920301548593       -25.899882690640901        0.0000000000000000                1
   87.606166025353005       -25.899882690640901        0.0000000000000000                1
   88.606140647431019       -25.899882690640901        0.0000000000000000                1
   89.606000566220189       -25.899882690640901        0.0000000000000000                1
   90.605825268930346       -25.899882690640901        0.0000000000000000                1
   91.605641645943891       -25.899882690640901        0.0000000000000000                1
   92.605456466395921       -25.899882690640901        0.0000000000000000                1
   93.605271055919914       -25.899882690640901        0.0000000000000000                1
   94.605085645443893       -25.899882690640901        0.0000000000000000                1
   95.604900465895881       -25.899882690640851        0.0000000000000000                1
   96.604716842909269       -25.899882690639508        0.0000000000000000                1
   97.604541545616541       -25.899882690609150        0.0000000000000000                1
   98.604401464356712       -25.899882690034634        0.0000000000000000                1
   99.604376085777545       -25.899882680929355        0.0000000000000000                1
   100.60462180263734       -25.899882560365175        0.0000000000000000                1
   101.60525135590122       -25.899881230981784        0.0000000000000000                1
   102.60588065518706       -25.899869077101243        0.0000000000000000                1
   103.60612556734063       -25.899777457333485        0.0000000000000000                1
   104.60610442147048       -25.899212049400173        0.0000000000000000                1
   105.60602984270879       -25.896381627791609        0.0000000000000000                1
   106.60628587608893       -25.885022538863222        0.0000000000000000                1
   107.60799788528600       -25.849034381868762        0.0000000000000000                1
   108.61403588025138       -25.760900120404575        0.0000000000000000                1
   109.63062624200364       -25.599246906869819        0.0000000000000000                1
   34.679368774559030       -25.278354052668583        0.0000000000000000                1
   35.389634666507717       -25.010308411170897        0.0000000000000000                1
   36.417196766470745       -24.949352794802014        0.0000000000000000                1
   37.494534047270577       -24.916169765622289        0.0000000000000000                1
   38.543471295639208       -24.902574096578530        0.0000000000000000                1
   39.568183334221068       -24.896727279635797        0.0000000000000000                1
   40.584503068847226       -24.890157600174508        0.0000000000000000                1
   41.599900577331759       -24.879293008690492        0.0000000000000000                1
   42.588929420152638       -24.868381577601493        0.0000000000000000                1
   43.379519184684597       -24.881445927376618        0.0000000000000000                1
   47.759458689124330       -24.853020219259143        0.0000000000000000                1
   48.573921436462463       -24.849989586342165        0.0000000000000000                1
   49.555912340936494       -24.870711323996233        0.0000000000000000                1
   50.561680743545431       -24.886792417392279        0.0000000000000000                1
   51.567404061604599       -24.895169300763861        0.0000000000000000                1
   52.570240995108897       -24.898511400712170        0.0000000000000000                1
   53.571308267827710       -24.899559710790669        0.0000000000000000                1
   54.571743913030176       -24.899820943406503        0.0000000000000000                1
   55.571971051668712       -24.899873072229507        0.0000000000000000                1
   56.572054441583283       -24.899881464447841        0.0000000000000000                1
   57.572051510324499       -24.899882562149333        0.0000000000000000                1
   58.572012318146896       -24.899882679560594        0.0000000000000000                1
   59.571962060251991       -24.899882689889452        0.0000000000000000                1
   60.571909247784006       -24.899882690640506        0.0000000000000000                1
   61.571855977585223       -24.899882690685825        0.0000000000000000                1
   62.571802649685132       -24.899882690688106        0.0000000000000000                1
   63.571749379438451       -24.899882690688202        0.0000000000000000                1
   64.571696566171710       -24.899882690688205        0.0000000000000000                1
   65.571646297255811       -24.899882690688205        0.0000000000000000                1
   66.571606979638688       -24.899882690688205        0.0000000000000000                1
   67.571602878101260       -24.899882690688205        0.0000000000000000                1
   68.571677390789191       -24.899882690688205        0.0000000000000000                1
   69.571850337150465       -24.899882690688205        0.0000000000000000                1
   70.572023283511754       -24.899882690688205        0.0000000000000000                1
   71.572097796199657       -24.899882690688205        0.0000000000000000                1
   72.572093694662229       -24.899882690688205        0.0000000000000000                1
   73.572054377044950       -24.899882690688205        0.0000000000000000                1
   74.572004108125910       -24.899882690688205        0.0000000000000000                1
   75.571951294807832       -24.899882690688205        0.0000000000000000                1
   76.571898023877694       -24.899882690688205        0.0000000000000000                1
   77.571844688562010       -24.899882690688205        0.0000000000000000                1
   78.571791353246326       -24.899882690688205        0.0000000000000000                1
   79.571738082316202       -24.899882690688205        0.0000000000000000                1
   80.571685268998110       -24.899882690688205        0.0000000000000000                1
   81.571635000079056       -24.899882690688205        0.0000000000000000                1
   82.571595682461805       -24.899882690688205        0.0000000000000000                1
   83.571591580924348       -24.899882690688205        0.0000000000000000                1
   84.571666093612222       -24.899882690688205        0.0000000000000000                1
   85.571839039973540       -24.899882690688205        0.0000000000000000                1
   86.572011986334829       -24.899882690688205        0.0000000000000000                1
   87.572086499022745       -24.899882690688205        0.0000000000000000                1
   88.572082397485318       -24.899882690688205        0.0000000000000000                1
   89.572043079868067       -24.899882690688205        0.0000000000000000                1
   90.571992810949013       -24.899882690688205        0.0000000000000000                1
   91.571939997630878       -24.899882690688205        0.0000000000000000                1
   92.571886726700768       -24.899882690688205        0.0000000000000000                1
   93.571833391385084       -24.899882690688205        0.0000000000000000                1
   94.571780056069414       -24.899882690688205        0.0000000000000000                1
   95.571726785139290       -24.899882690688170        0.0000000000000000                1
   96.571673971821326       -24.899882690687143        0.0000000000000000                1
   97.571623702905597       -24.899882690663407        0.0000000000000000                1
   98.571584385351642       -24.899882690201860        0.0000000000000000                1
   99.571580284831683       -24.899882682681927        0.0000000000000000                1
   100.57165481129236       -24.899882580327226        0.0000000000000000                1
   101.57182791413419       -24.899881421112099        0.0000000000000000                1
   102.57200234504688       -24.899870551808466        0.0000000000000000                1
   103.57208853771702       -24.899786703737139        0.0000000000000000                1
   104.57215998849824       -24.899258711263744        0.0000000000000000                1
   105.57251829901020       -24.896571310173126        0.0000000000000000                1
   106.57415015322096       -24.885650940021335        0.0000000000000000                1
   107.57974106577470       -24.850770284503596        0.0000000000000000                1
   108.59450183798194       -24.764885401979583        0.0000000000000000                1
   109.62446764557038       -24.605663029476673        0.0000000000000000                1
   35.603381541661946       -24.362845635880696        0.0000000000000000                1
   36.238072909741540       -23.997561522805782        0.0000000000000000                1
   37.434112211511092       -23.938367034764703        0.0000000000000000                1
   38.517832435922550       -23.910588015048717        0.0000000000000000                1
   39.554984632850378       -23.899307344562494        0.0000000000000000                1
   40.580369777266363       -23.892033122336727        0.0000000000000000                1
   41.621923130091972       -23.883753575234639        0.0000000000000000                1
   42.735759126948565       -23.881360152464779        0.0000000000000000                1
   43.271824537720335       -24.271793203536134        0.0000000000000000                1
   47.888481905442895       -24.231003857718466        0.0000000000000000                1
   48.460523661591225       -23.852382771126084        0.0000000000000000                1
   49.533251545548694       -23.870222221118492        0.0000000000000000                1
   50.549735509820373       -23.885192416461049        0.0000000000000000                1
   51.556423995044270       -23.894017846550724        0.0000000000000000                1
   52.559651386809115       -23.897999190030131        0.0000000000000000                1
   53.560927662598182       -23.899396100171593        0.0000000000000000                1
   54.561340281415958       -23.899781308474626        0.0000000000000000                1
   55.561464941312941       -23.899865585860294        0.0000000000000000                1
   56.561497810097094       -23.899880342590006        0.0000000000000000                1
   57.561499224136590       -23.899882427086414        0.0000000000000000                1
   58.561490380796293       -23.899882666375674        0.0000000000000000                1
   59.561478764843244       -23.899882688848475        0.0000000000000000                1
   60.561466558601914       -23.899882690585596        0.0000000000000000                1
   61.561454254032952       -23.899882690696710        0.0000000000000000                1