 VARIABLES = "X", "Y", "Z"
 ZONE F=FEPOINT, ET=QUADRILATERAL, N=        4815 E=        4418
   33.579022216348605       -28.074138199313975        0.0000000000000000     
   34.964699988244398       -28.019942226073248        0.0000000000000000     
   35.851891832617184       -27.940165267984924        0.0000000000000000     
   36.827953327671338       -27.910610834098254        0.0000000000000000     
   37.824959629312474       -27.901758282747316        0.0000000000000000     
   38.825841163086210       -27.899755761016674        0.0000000000000000     
   39.827113790852238       -27.898986539464328        0.0000000000000000     
   40.829211736162165       -27.897172321598376        0.0000000000000000     
   41.833506208974690       -27.892996211631953        0.0000000000000000     
   42.840529390295757       -27.887007887585220        0.0000000000000000     
   43.846965346705652       -27.886196329481901        0.0000000000000000     
   44.840271090278485       -27.906693407347511        0.0000000000000000     
   45.824439339374621       -27.915618300209388        0.0000000000000000     
   46.810026786925746       -27.903065523473458        0.0000000000000000     
   47.805272808895857       -27.882217472519308        0.0000000000000000     
   48.812908757429561       -27.884753108255197        0.0000000000000000     
   49.820064281411170       -27.892104727321964        0.0000000000000000     
   50.824146602526795       -27.896935900193519        0.0000000000000000     
   51.825892807146779       -27.899015039631664        0.0000000000000000     
   52.826467047180955       -27.899680191233934        0.0000000000000000     
   53.826613666846974       -27.899844847118246        0.0000000000000000     
   54.826642774722494       -27.899876987357441        0.0000000000000000     
   55.826647435287413       -27.899881993039024        0.0000000000000000     
   56.826649417674325       -27.899882620564192        0.0000000000000000     
   57.826649492717912       -27.899882684335690        0.0000000000000000     
   58.826650717427782       -27.899882689620167        0.0000000000000000     
   59.826651534551409       -27.899882689978995        0.0000000000000000     
   60.826649688602636       -27.899882689999039        0.0000000000000000     
   61.826650874392683       -27.899882689999963        0.0000000000000000     
   62.826651940393191       -27.899882689999998        0.0000000000000000     
   63.826649523661871       -27.899882689999998        0.0000000000000000     
   64.826648352370370       -27.899882689999998        0.0000000000000000     
   65.826647589547591       -27.899882689999998        0.0000000000000000     
   66.826647063387938       -27.899882689999998        0.0000000000000000     
   67.826648447751509       -27.899882689999998        0.0000000000000000     
   68.826648942120329       -27.899882689999998        0.0000000000000000     
   69.826650458259365       -27.899882689999998        0.0000000000000000     
   70.826651878088484       -27.899882689999998        0.0000000000000000     
   71.826650477451750       -27.899882689999998        0.0000000000000000     
   72.826651228506847       -27.899882689999998        0.0000000000000000     
   73.826651731861261       -27.899882689999998        0.0000000000000000     
   74.826649174885731       -27.899882689999998        0.0000000000000000     
   75.826648069553713       -27.899882689999998        0.0000000000000000     
   76.826649134473030       -27.899882689999998        0.0000000000000000     
   77.826649003146883       -27.899882689999998        0.0000000000000000     
   78.826648518902118       -27.899882689999998        0.0000000000000000     
   79.826647980225275       -27.899882689999998        0.0000000000000000     
   80.826647621155900       -27.899882689999998        0.0000000000000000     
   81.826649425444728       -27.899882689999998        0.0000000000000000     
   82.826651285636814       -27.899882689999998        0.0000000000000000     
   83.826652622527590       -27.899882689999998        0.0000000000000000     
   84.826652000869217       -27.899882689999998        0.0000000000000000     
   85.826649501589102       -27.899882689999998        0.0000000000000000     
   86.826648294486660       -27.899882689999998        0.0000000000000000     
   87.826648935547738       -27.899882689999998        0.0000000000000000     
   88.826648831037829       -27.899882689999998        0.0000000000000000     
   89.826648887318100       -27.899882689999998        0.0000000000000000     
   90.826650294318583       -27.899882689999998        0.0000000000000000     
   91.826650296225822       -27.899882689999998        0.0000000000000000     
   92.826651436580747       -27.899882689999998        0.0000000000000000     
   93.826651939867261       -27.899882689999998        0.0000000000000000     
   94.826648993140040       -27.899882689999998        0.0000000000000000     
   95.826646482803199       -27.899882689999867        0.0000000000000000     
   96.826647548803678       -27.899882689997050        0.0000000000000000     
   97.826648828190912       -27.899882689944022        0.0000000000000000     
   98.826648757464810       -27.899882689096678        0.0000000000000000     
   99.826648304896722       -27.899882677587154        0.0000000000000000     
   100.82664781711286       -27.899882544831112        0.0000000000000000     
   101.82664880349945       -27.899881246795502        0.0000000000000000     
   102.82664594451872       -27.899870517395279        0.0000000000000000     
   103.82662512711576       -27.899795810375764        0.0000000000000000     
   104.82650269334641       -27.899359402111369        0.0000000000000000     
   105.82591862975796       -27.897227629601684        0.0000000000000000     
   106.82352546239542       -27.888517326931371        0.0000000000000000     
   107.81451123847124       -27.858437786677122        0.0000000000000000     
   108.77813808434718       -27.767912494654219        0.0000000000000000     
   109.63466592116572       -27.522845594732821        0.0000000000000000     
   33.567194999485402       -26.943430461317739        0.0000000000000000     
   34.501518288503746       -27.081521022904901        0.0000000000000000     
   35.606133050436654       -26.960277834831931        0.0000000000000000     
   36.639291085356163       -26.916159615599277        0.0000000000000000     
   37.656462156381721       -26.902365583395813        0.0000000000000000     
   38.666060232632262       -26.899137481817689        0.0000000000000000     
   39.671513003515038       -26.897588150747335        0.0000000000000000     
   40.677207052024016       -26.893358810458054        0.0000000000000000     
   41.687535881956464       -26.883060253315460        0.0000000000000000     
   42.705655116037548       -26.865321822503148        0.0000000000000000     
   43.729945167399372       -26.852596833366135        0.0000000000000000     
   44.710192846652909       -26.932683152308861        0.0000000000000000     
   45.663509675645230       -26.962670193826682        0.0000000000000000     
   46.622381397069603       -26.920249570994603        0.0000000000000000     
   47.608794552517935       -26.839840757977527        0.0000000000000000     
   48.637746723670205       -26.858785974853475        0.0000000000000000     
   49.656085590189562       -26.880555841653571        0.0000000000000000     
   50.665365333626596       -26.892694286489405        0.0000000000000000     
   51.669334367612088       -26.897722585516075        0.0000000000000000     
   52.670704971177344       -26.899356347015445        0.0000000000000000     
   53.671079255608895       -26.899778514038918        0.0000000000000000     
   54.671159973212099       -26.899865900722087        0.0000000000000000     
   55.671173920788981       -26.899880479738844        0.0000000000000000     
   56.671176246282648       -26.899882451475971        0.0000000000000000     
   57.671176654218627       -26.899882668824922        0.0000000000000000     
   58.671177079411088       -26.899882688448521        0.0000000000000000     
   59.671177291070393       -26.899882689905912        0.0000000000000000     
   60.671176925315045       -26.899882689995270        0.0000000000000000     
   61.671177192929164       -26.899882689999803        0.0000000000000000     
   62.671177375946350       -26.899882689999995        0.0000000000000000     
   63.671176673114687       -26.899882689999998        0.0000000000000000     
   64.671176121253566       -26.899882689999998        0.0000000000000000     
   65.671175769641636       -26.899882689999998        0.0000000000000000     
   66.671175651251502       -26.899882689999998        0.0000000000000000     
   67.671176059349733       -26.899882689999998        0.0000000000000000     
   68.671176415132322       -26.899882689999998        0.0000000000000000     
   69.671176987640607       -26.899882689999998        0.0000000000000000     
   70.671177424243922       -26.899882689999998        0.0000000000000000     
   71.671177195563914       -26.899882689999998        0.0000000000000000     
   72.671177334930576       -26.899882689999998        0.0000000000000000     
   73.671177323831159       -26.899882689999998        0.0000000000000000     
   74.671176564514170       -26.899882689999998        0.0000000000000000     
   75.671176146095036       -26.899882689999998        0.0000000000000000     
   76.671176328191450       -26.899882689999998        0.0000000000000000     
   77.671176306595541       -26.899882689999998        0.0000000000000000     
   78.671176129353498       -26.899882689999998        0.0000000000000000     
   79.671175938813491       -26.899882689999998        0.0000000000000000     
   80.671175942693381       -26.899882689999998        0.0000000000000000     
   81.671176578752807       -26.899882689999998        0.0000000000000000     
   82.671177321348253       -26.899882689999998        0.0000000000000000     
   83.671177784016734       -26.899882689999998        0.0000000000000000     
   84.671177533692401       -26.899882689999998        0.0000000000000000     
   85.671176709811192       -26.899882689999998        0.0000000000000000     
   86.671176221943639       -26.899882689999998        0.0000000000000000     
   87.671176284170727       -26.899882689999998        0.0000000000000000     
   88.671176302792020       -26.899882689999998        0.0000000000000000     
   89.671176419413470       -26.899882689999998        0.0000000000000000     
   90.671176845602147       -26.899882689999998        0.0000000000000000     
   91.671177029610291       -26.899882689999998        0.0000000000000000     
   92.671177372102093       -26.899882689999998        0.0000000000000000     
   93.671177360946260       -26.899882689999998        0.0000000000000000     
   94.671176398122881       -26.899882689999998        0.0000000000000000     
   95.671175564949536       -26.899882689999906        0.0000000000000000     
   96.671175747966700       -26.899882689997678        0.0000000000000000     
   97.671176145916419       -26.899882689951397        0.0000000000000000     
   98.671176190948700       -26.899882689142203        0.0000000000000000     
   99.671176058961024       -26.899882677221626        0.0000000000000000     
   100.67117597952682       -26.899882529528469        0.0000000000000000     
   101.67117614036177       -26.899880994469260        0.0000000000000000     
   102.67117433886129       -26.899867658399987        0.0000000000000000     
   103.67116065619763       -26.899771281107849        0.0000000000000000     
   104.67108511794734       -26.899195486094346        0.0000000000000000     
   105.67075351917720       -26.896373561995656        0.0000000000000000     
   106.66954017208728       -26.885135043867624        0.0000000000000000     
   107.66567109221592       -26.849192087852906        0.0000000000000000     
   108.65484612415258       -26.758595691418520        0.0000000000000000     
   109.63527673113370       -26.587929926536827        0.0000000000000000     
   33.621640667390821       -26.317044246593390        0.0000000000000000     
   34.370605008519668       -25.977961165108958        0.0000000000000000     
   35.464954280727916       -25.953844612970240        0.0000000000000000     
   36.511721825948342       -25.920956823821321        0.0000000000000000     
   37.550378279863374       -25.904542658356391        0.0000000000000000     
   38.574358418717956       -25.899124549334694        0.0000000000000000     
   39.587309150947505       -25.896245256522437        0.0000000000000000     
   40.598060800740519       -25.889644981051312        0.0000000000000000     
   41.614436498309793       -25.873013530402396        0.0000000000000000     
   42.644400303158626       -25.834311356162775        0.0000000000000000     
   43.732494621656379       -25.730740422035947        0.0000000000000000     
   44.680290657629584       -26.023353288343699        0.0000000000000000     
   45.564936906793022       -26.100213983574424        0.0000000000000000     
   46.470160482417938       -25.986803625403617        0.0000000000000000     
   47.431670656422860       -25.697850964005749        0.0000000000000000     
   48.537639144927937       -25.821023432157730        0.0000000000000000     
   49.566837323762236       -25.868060833814159        0.0000000000000000     
   50.579330671010119       -25.888190875974445        0.0000000000000000     
   51.585072733805866       -25.896217756643143        0.0000000000000000     
   52.587285694837462       -25.898929707754171        0.0000000000000000     
   53.587956847130677       -25.899679331820469        0.0000000000000000     
   54.588116423361576       -25.899847176842410        0.0000000000000000     
   55.588146495223825       -25.899877609769241        0.0000000000000000     
   56.588151140914150       -25.899882093124678        0.0000000000000000     
   57.588151783604836       -25.899882632218478        0.0000000000000000     
   58.588151963348679       -25.899882685376060        0.0000000000000000     
   59.588152025418424       -25.899882689693204        0.0000000000000000     
   60.588151956189222       -25.899882689983077        0.0000000000000000     
   61.588152015690270       -25.899882689999220        0.0000000000000000     
   62.588152039383935       -25.899882689999970        0.0000000000000000     
   63.588151838533413       -25.899882689999998        0.0000000000000000     
   64.588151642909494       -25.899882689999998        0.0000000000000000     
   65.588151516875698       -25.899882689999998        0.0000000000000000     
   66.588151488131643       -25.899882689999998        0.0000000000000000     
   67.588151607112081       -25.899882689999998        0.0000000000000000     
   68.588151749303734       -25.899882689999998        0.0000000000000000     
   69.588151937584456       -25.899882689999998        0.0000000000000000     
   70.588152069369258       -25.899882689999998        0.0000000000000000     
   71.588152040094556       -25.899882689999998        0.0000000000000000     
   72.588152063360511       -25.899882689999998        0.0000000000000000     
   73.588152027344336       -25.899882689999998        0.0000000000000000     
   74.588151809927439       -25.899882689999998        0.0000000000000000     
   75.588151672956599       -25.899882689999998        0.0000000000000000     
   76.588151696236380       -25.899882689999998        0.0000000000000000     
   77.588151689662624       -25.899882689999998        0.0000000000000000     
   78.588151633514130       -25.899882689999998        0.0000000000000000     
   79.588151576232931       -25.899882689999998        0.0000000000000000     
   80.588151600152898       -25.899882689999998        0.0000000000000000     
   81.588151803770344       -25.899882689999998        0.0000000000000000     
   82.588152051299559       -25.899882689999998        0.0000000000000000     
   83.588152195788993       -25.899882689999998        0.0000000000000000     
   84.588152112971258       -25.899882689999998        0.0000000000000000     
   85.588151862986180       -25.899882689999998        0.0000000000000000     
   86.588151697088250       -25.899882689999998        0.0000000000000000     
   87.588151687845738       -25.899882689999998        0.0000000000000000     
   88.588151701954814       -25.899882689999998        0.0000000000000000     
   89.588151755149966       -25.899882689999998        0.0000000000000000     
   90.588151882274772       -25.899882689999998        0.0000000000000000     
   91.588151969297542       -25.899882689999998        0.0000000000000000     
   92.588152066022431       -25.899882689999998        0.0000000000000000     
   93.588152029982226       -25.899882689999998        0.0000000000000000     
   94.588151738938194       -25.899882689999998        0.0000000000000000     
   95.588151484740564       -25.899882689999949        0.0000000000000000     
   96.588151508433739       -25.899882689998631        0.0000000000000000     
   97.588151621268935       -25.899882689968802        0.0000000000000000     
   98.588151647206786       -25.899882689404386        0.0000000000000000     
   99.588151615324136       -25.899882680459868        0.0000000000000000     
   100.58815161981536       -25.899882562040389        0.0000000000000000     
   101.58815179113924       -25.899881256546529        0.0000000000000000     
   102.58815238157968       -25.899869323758100        0.0000000000000000     
   103.58815651969587       -25.899779393777351        0.0000000000000000     
   104.58818603583252       -25.899224572907457        0.0000000000000000     
   105.58836226198679       -25.896448046709715        0.0000000000000000     
   106.58919485144617       -25.885309590190168        0.0000000000000000     
   107.59226374354817       -25.850039725743706        0.0000000000000000     
   108.60120742267398       -25.763749567281732        0.0000000000000000     
   109.62314584884099       -25.605867406068768        0.0000000000000000     
   34.664369060716567       -25.284595865685787        0.0000000000000000     
   35.378197131252030       -25.013406949794824        0.0000000000000000     
   36.404098471673656       -24.950828555504245        0.0000000000000000     
   37.479351349614824       -24.916759619119944        0.0000000000000000     
   38.527028372866802       -24.902758077884563        0.0000000000000000     
   39.551275103921022       -24.896726010218472        0.0000000000000000     
   40.567901399952149       -24.889959430544078        0.0000000000000000     
   41.584624613002539       -24.878627453653902        0.0000000000000000     
   42.576306860916851       -24.866650220317098        0.0000000000000000     
   43.369936276107872       -24.877892318246904        0.0000000000000000     
   47.750265325816507       -24.856157228408524        0.0000000000000000     
   48.561603003343293       -24.851739160364243        0.0000000000000000     
   49.541033096666141       -24.871459753777611        0.0000000000000000     
   50.545507911621677       -24.887048211015735        0.0000000000000000     
   51.550753862539388       -24.895239745564094        0.0000000000000000     
   52.553440386113230       -24.898527105155171        0.0000000000000000     
   53.554396564651412       -24.899562558201502        0.0000000000000000     
   54.554652319933766       -24.899821365035748        0.0000000000000000     
   55.554705457137104       -24.899873123006671        0.0000000000000000     
   56.554714232528411       -24.899881468938691        0.0000000000000000     
   57.554715417842978       -24.899882561893314        0.0000000000000000     
   58.554715575573859       -24.899882678902408        0.0000000000000000     
   59.554715601144999       -24.899882689202990        0.0000000000000000     
   60.554715589119525       -24.899882689952374        0.0000000000000000     
   61.554715601995113       -24.899882689997629        0.0000000000000000     
   62.554715603836229       -24.899882689999902        0.0000000000000000     
   63.554715552093981       -24.899882689999998        0.0000000000000000     
   64.554715496431683       -24.899882689999998        0.0000000000000000     
   65.554715460252268       -24.899882689999998        0.0000000000000000     
   66.554715453469029       -24.899882689999998        0.0000000000000000     
   67.554715484570778       -24.899882689999998        0.0000000000000000     
   68.554715526969773       -24.899882689999998        0.0000000000000000     
   69.554715578943615       -24.899882689999998        0.0000000000000000     
   70.554715614026577       -24.899882689999998        0.0000000000000000     
   71.554715611698413       -24.899882689999998        0.0000000000000000     
   72.554715615260847       -24.899882689999998        0.0000000000000000     
   73.554715601142405       -24.899882689999998        0.0000000000000000     
   74.554715545206932       -24.899882689999998        0.0000000000000000     
   75.554715507532975       -24.899882689999998        0.0000000000000000     
   76.554715509249135       -24.899882689999998        0.0000000000000000     
   77.554715507338784       -24.899882689999998        0.0000000000000000     
   78.554715492162842       -24.899882689999998        0.0000000000000000     
   79.554715477137904       -24.899882689999998        0.0000000000000000     
   80.554715486598411       -24.899882689999998        0.0000000000000000     
   81.554715542234504       -24.899882689999998        0.0000000000000000     
   82.554715610906442       -24.899882689999998        0.0000000000000000     
   83.554715649806639       -24.899882689999998        0.0000000000000000     
   84.554715626936783       -24.899882689999998        0.0000000000000000     
   85.554715560619044       -24.899882689999998        0.0000000000000000     
   86.554715514052432       -24.899882689999998        0.0000000000000000     
   87.554715507656795       -24.899882689999998        0.0000000000000000     
   88.554715512543126       -24.899882689999998        0.0000000000000000     
   89.554715529112400       -24.899882689999998        0.0000000000000000     
   90.554715562767413       -24.899882689999998        0.0000000000000000     
   91.554715590089657       -24.899882689999998        0.0000000000000000     
   92.554715614722795       -24.899882689999998        0.0000000000000000     
   93.554715600597731       -24.899882689999998        0.0000000000000000     
   94.554715523542711       -24.899882689999998        0.0000000000000000     
   95.554715455937909       -24.899882689999963        0.0000000000000000     
   96.554715457776894       -24.899882689998961        0.0000000000000000     
   97.554715486472460       -24.899882689975687        0.0000000000000000     
   98.554715495141892       -24.899882689523338        0.0000000000000000     
   99.554715489198117       -24.899882682151990        0.0000000000000000     
   100.55471551050776       -24.899882581807042        0.0000000000000000     
   101.55471575492125       -24.899881445244162        0.0000000000000000     
   102.55471774934445       -24.899870787661353        0.0000000000000000     
   103.55473280252413       -24.899788570662746        0.0000000000000000     
   104.55482794319541       -24.899270858045398        0.0000000000000000     
   105.55531999874003       -24.896635976429067        0.0000000000000000     
   106.55737148284521       -24.885930723760612        0.0000000000000000     
   107.56416685453685       -24.851747448812429        0.0000000000000000     
   108.58179240255916       -24.767627288095586        0.0000000000000000     
   109.61708974070189       -24.611845891752640        0.0000000000000000     
   35.596176818101135       -24.364153116083781        0.0000000000000000     
   36.229068244998771       -23.999526228542980        0.0000000000000000     
   37.420305346950094       -23.939210126731925        0.0000000000000000     
   38.501890649196177       -23.910866907138356        0.0000000000000000     
   39.538455149638573       -23.899331345790333        0.0000000000000000     
   40.564422054242669       -23.891826566848959        0.0000000000000000     
   41.608180001816201       -23.883017292406080        0.0000000000000000     
   42.727005620793662       -23.879251002038384        0.0000000000000000     
   43.265018318290707       -24.268946966611086        0.0000000000000000     
   47.881293408860429       -24.234149578500965        0.0000000000000000     
   48.451523857655104       -23.855153868438180        0.0000000000000000     
   49.519581245940522       -23.871375998343158        0.0000000000000000     
   50.533873610830426       -23.885598487127918        0.0000000000000000     
   51.539716389964155       -23.894135174268374        0.0000000000000000     
   52.542678639229038       -23.898026799724118        0.0000000000000000     
   53.543871165388076       -23.899401393422963        0.0000000000000000     
   54.544231110995284       -23.899782137743070        0.0000000000000000     
   55.544314191030793       -23.899865692038780        0.0000000000000000     
   56.544329191832851       -23.899880353245837        0.0000000000000000     
   57.544331351575515       -23.899882427384117        0.0000000000000000     
   58.544331608246402       -23.899882665746127        0.0000000000000000     
   59.544331634905234       -23.899882688150068        0.0000000000000000     
   60.544331634384967       -23.899882689882922        0.0000000000000000     
   61.544331637118354       -23.899882689993827        0.0000000000000000     
   62.544331637143756       -23.899882689999728        0.0000000000000000     
   63.544331625689409       -23.899882689999991        0.0000000000000000     
   64.544331612789691       -23.899882689999998        0.0000000000000000     
   65.544331604385434       -23.899882689999998        0.0000000000000000     
   66.544331602956134       -23.899882689999998        0.0000000000000000     
   67.544331609894229       -23.899882689999998        0.0000000000000000     
   68.544331619885156       -23.899882689999998        0.0000000000000000     
   69.544331631752257       -23.899882689999998        0.0000000000000000     
   70.544331639613105       -23.899882689999998        0.0000000000000000     
   71.544331639614612       -23.899882689999998        0.0000000000000000     
   72.544331640166547       -23.899882689999998        0.0000000000000000     
   73.544331636553110       -23.899882689999998        0.0000000000000000     
   74.544331624151241       -23.899882689999998        0.0000000000000000     
   75.544331615558789       -23.899882689999998        0.0000000000000000     
   76.544331615551869       -23.899882689999998        0.0000000000000000     
   77.544331615156182       -23.899882689999998        0.0000000000000000     
   78.544331611704820       -23.899882689999998        0.0000000000000000     
   79.544331608289227       -23.899882689999998        0.0000000000000000     
   80.544331610682121       -23.899882689999998        0.0000000000000000     
   81.544331623343879       -23.899882689999998        0.0000000000000000     
   82.544331639112414       -23.899882689999998        0.0000000000000000     
   83.544331647931401       -23.899882689999998        0.0000000000000000     
   84.544331642671935       -23.899882689999998        0.0000000000000000     
   85.544331627725285       -23.899882689999998        0.0000000000000000     
   86.544331617002683       -23.899882689999998        0.0000000000000000     
   87.544331615202992       -23.899882689999998        0.0000000000000000     
   88.544331616436196       -23.899882689999998        0.0000000000000000     
   89.544331620394416       -23.899882689999998        0.0000000000000000     
   90.544331627931257       -23.899882689999998        0.0000000000000000     
   91.544331634512744       -23.899882689999998        0.0000000000000000     
   92.544331639991327       -23.899882689999998        0.0000000000000000     
   93.544331636376597       -23.899882689999998        0.0000000000000000     
   94.544331619037891       -23.899882689999998        0.0000000000000000     
   95.544331603803755       -23.899882689999966        0.0000000000000000     
   96.544331603823238       -23.899882689999021        0.0000000000000000     
   97.544331610225711       -23.899882689977172        0.0000000000000000     
   98.544331612435968       -23.899882689551948        0.0000000000000000     
   99.544331612555354       -23.899882682608208        0.0000000000000000     
   100.54433163646931       -23.899882587768023        0.0000000000000000     
   101.54433190614405       -23.899881508747630        0.0000000000000000     
   102.54433436995733       -23.899871335979913        0.0000000000000000     
   103.54435331946513       -23.899792381163895        0.0000000000000000     
   104.54447298502826       -23.899292000135720        0.0000000000000000     
   105.54508604562319       -23.896728783059025        0.0000000000000000     
   106.54760252243170       -23.886249560955232        0.0000000000000000     
   107.55575628266561       -23.852589857160297        0.0000000000000000     
   108.57623823861593       -23.769258705298203        0.0000000000000000     
   109.61527380784119       -23.613754248094722        0.0000000000000000     
   36.353724019161014       -23.062312429253272        0.0000000000000000     
   37.436492310290227       -22.963972393963669        0.0000000000000000     