  TITLE = "SEM Quad mesh" 
  VARIABLES = "x","y", "z"
 ZONE I=           7 ,J=           7 , F=POINT
 -0.18058E+02  0.43067E+01  0.00000E+00
 -0.17974E+02  0.42889E+01  0.00000E+00
 -0.17745E+02  0.42402E+01  0.00000E+00
 -0.17433E+02  0.41736E+01  0.00000E+00
 -0.17120E+02  0.41071E+01  0.00000E+00
 -0.16891E+02  0.40584E+01  0.00000E+00
 -0.16807E+02  0.40406E+01  0.00000E+00
 -0.18076E+02  0.43907E+01  0.00000E+00
 -0.17990E+02  0.43747E+01  0.00000E+00
 -0.17756E+02  0.43309E+01  0.00000E+00
 -0.17436E+02  0.42711E+01  0.00000E+00
 -0.17116E+02  0.42113E+01  0.00000E+00
 -0.16881E+02  0.41676E+01  0.00000E+00
 -0.16795E+02  0.41515E+01  0.00000E+00
 -0.18126E+02  0.46204E+01  0.00000E+00
 -0.18035E+02  0.46093E+01  0.00000E+00
 -0.17785E+02  0.45790E+01  0.00000E+00
 -0.17445E+02  0.45376E+01  0.00000E+00
 -0.17104E+02  0.44961E+01  0.00000E+00
 -0.16855E+02  0.44658E+01  0.00000E+00
 -0.16764E+02  0.44547E+01  0.00000E+00
 -0.18194E+02  0.49341E+01  0.00000E+00
 -0.18095E+02  0.49298E+01  0.00000E+00
 -0.17825E+02  0.49178E+01  0.00000E+00
 -0.17457E+02  0.49015E+01  0.00000E+00
 -0.17088E+02  0.48851E+01  0.00000E+00
 -0.16819E+02  0.48732E+01  0.00000E+00
 -0.16720E+02  0.48688E+01  0.00000E+00
 -0.18262E+02  0.52479E+01  0.00000E+00
 -0.18156E+02  0.52502E+01  0.00000E+00
 -0.17866E+02  0.52566E+01  0.00000E+00
 -0.17469E+02  0.52654E+01  0.00000E+00
 -0.17073E+02  0.52742E+01  0.00000E+00
 -0.16783E+02  0.52806E+01  0.00000E+00
 -0.16677E+02  0.52829E+01  0.00000E+00
 -0.18312E+02  0.54775E+01  0.00000E+00
 -0.18200E+02  0.54848E+01  0.00000E+00
 -0.17895E+02  0.55047E+01  0.00000E+00
 -0.17478E+02  0.55318E+01  0.00000E+00
 -0.17061E+02  0.55589E+01  0.00000E+00
 -0.16756E+02  0.55788E+01  0.00000E+00
 -0.16645E+02  0.55861E+01  0.00000E+00
 -0.18330E+02  0.55616E+01  0.00000E+00
 -0.18216E+02  0.55707E+01  0.00000E+00
 -0.17906E+02  0.55955E+01  0.00000E+00
 -0.17481E+02  0.56293E+01  0.00000E+00
 -0.17057E+02  0.56632E+01  0.00000E+00
 -0.16747E+02  0.56880E+01  0.00000E+00
 -0.16633E+02  0.56970E+01  0.00000E+00
 ZONE I=           7 ,J=           7 , F=POINT
 -0.16807E+02  0.40406E+01  0.00000E+00
 -0.16682E+02  0.40227E+01  0.00000E+00
 -0.16342E+02  0.39738E+01  0.00000E+00
 -0.15877E+02  0.39071E+01  0.00000E+00
 -0.15412E+02  0.38404E+01  0.00000E+00
 -0.15072E+02  0.37915E+01  0.00000E+00
 -0.14947E+02  0.37736E+01  0.00000E+00
 -0.16795E+02  0.41515E+01  0.00000E+00
 -0.16671E+02  0.41346E+01  0.00000E+00
 -0.16331E+02  0.40884E+01  0.00000E+00
 -0.15867E+02  0.40252E+01  0.00000E+00
 -0.15403E+02  0.39621E+01  0.00000E+00
 -0.15063E+02  0.39159E+01  0.00000E+00
 -0.14938E+02  0.38989E+01  0.00000E+00
 -0.16764E+02  0.44547E+01  0.00000E+00
 -0.16640E+02  0.44404E+01  0.00000E+00
 -0.16301E+02  0.44014E+01  0.00000E+00
 -0.15839E+02  0.43480E+01  0.00000E+00
 -0.15377E+02  0.42947E+01  0.00000E+00
 -0.15039E+02  0.42556E+01  0.00000E+00
 -0.14915E+02  0.42413E+01  0.00000E+00
 -0.16720E+02  0.48688E+01  0.00000E+00
 -0.16597E+02  0.48581E+01  0.00000E+00
 -0.16261E+02  0.48289E+01  0.00000E+00
 -0.15801E+02  0.47889E+01  0.00000E+00
 -0.15342E+02  0.47490E+01  0.00000E+00
 -0.15005E+02  0.47198E+01  0.00000E+00
 -0.14882E+02  0.47091E+01  0.00000E+00
 -0.16677E+02  0.52829E+01  0.00000E+00
 -0.16554E+02  0.52758E+01  0.00000E+00
 -0.16220E+02  0.52564E+01  0.00000E+00
 -0.15763E+02  0.52299E+01  0.00000E+00
 -0.15307E+02  0.52033E+01  0.00000E+00
 -0.14972E+02  0.51839E+01  0.00000E+00
 -0.14850E+02  0.51768E+01  0.00000E+00
 -0.16645E+02  0.55861E+01  0.00000E+00
 -0.16523E+02  0.55816E+01  0.00000E+00
 -0.16190E+02  0.55694E+01  0.00000E+00
 -0.15735E+02  0.55526E+01  0.00000E+00
 -0.15281E+02  0.55359E+01  0.00000E+00
 -0.14948E+02  0.55237E+01  0.00000E+00
 -0.14826E+02  0.55192E+01  0.00000E+00
 -0.16633E+02  0.56970E+01  0.00000E+00
 -0.16511E+02  0.56935E+01  0.00000E+00
 -0.16179E+02  0.56839E+01  0.00000E+00
 -0.15725E+02  0.56708E+01  0.00000E+00
 -0.15271E+02  0.56577E+01  0.00000E+00
 -0.14939E+02  0.56480E+01  0.00000E+00
 -0.14818E+02  0.56445E+01  0.00000E+00
 ZONE I=           7 ,J=           7 , F=POINT
 -0.14947E+02  0.37736E+01  0.00000E+00
 -0.14807E+02  0.37684E+01  0.00000E+00
 -0.14426E+02  0.37542E+01  0.00000E+00
 -0.13905E+02  0.37348E+01  0.00000E+00
 -0.13384E+02  0.37154E+01  0.00000E+00
 -0.13002E+02  0.37012E+01  0.00000E+00
 -0.12863E+02  0.36960E+01  0.00000E+00
 -0.14938E+02  0.38989E+01  0.00000E+00
 -0.14799E+02  0.38939E+01  0.00000E+00
 -0.14420E+02  0.38801E+01  0.00000E+00
 -0.13901E+02  0.38613E+01  0.00000E+00
 -0.13382E+02  0.38424E+01  0.00000E+00
 -0.13003E+02  0.38286E+01  0.00000E+00
 -0.12864E+02  0.38236E+01  0.00000E+00
 -0.14915E+02  0.42413E+01  0.00000E+00
 -0.14777E+02  0.42367E+01  0.00000E+00
 -0.14403E+02  0.42240E+01  0.00000E+00
 -0.13890E+02  0.42068E+01  0.00000E+00
 -0.13378E+02  0.41895E+01  0.00000E+00
 -0.13004E+02  0.41768E+01  0.00000E+00
 -0.12866E+02  0.41722E+01  0.00000E+00
 -0.14882E+02  0.47091E+01  0.00000E+00
 -0.14748E+02  0.47050E+01  0.00000E+00
 -0.14379E+02  0.46939E+01  0.00000E+00
 -0.13876E+02  0.46787E+01  0.00000E+00
 -0.13373E+02  0.46635E+01  0.00000E+00
 -0.13005E+02  0.46524E+01  0.00000E+00
 -0.12870E+02  0.46484E+01  0.00000E+00
 -0.14850E+02  0.51768E+01  0.00000E+00
 -0.14718E+02  0.51733E+01  0.00000E+00
 -0.14356E+02  0.51637E+01  0.00000E+00
 -0.13862E+02  0.51507E+01  0.00000E+00
 -0.13368E+02  0.51376E+01  0.00000E+00
 -0.13006E+02  0.51281E+01  0.00000E+00
 -0.12874E+02  0.51246E+01  0.00000E+00
 -0.14826E+02  0.55192E+01  0.00000E+00
 -0.14696E+02  0.55161E+01  0.00000E+00
 -0.14339E+02  0.55077E+01  0.00000E+00
 -0.13851E+02  0.54962E+01  0.00000E+00
 -0.13364E+02  0.54847E+01  0.00000E+00
 -0.13007E+02  0.54762E+01  0.00000E+00
 -0.12877E+02  0.54732E+01  0.00000E+00
 -0.14818E+02  0.56445E+01  0.00000E+00
 -0.14688E+02  0.56416E+01  0.00000E+00
 -0.14333E+02  0.56336E+01  0.00000E+00
 -0.13848E+02  0.56226E+01  0.00000E+00
 -0.13363E+02  0.56117E+01  0.00000E+00
 -0.13008E+02  0.56037E+01  0.00000E+00
 -0.12878E+02  0.56008E+01  0.00000E+00
 ZONE I=           7 ,J=           7 , F=POINT
 -0.12863E+02  0.36960E+01  0.00000E+00
 -0.12730E+02  0.37035E+01  0.00000E+00
 -0.12367E+02  0.37242E+01  0.00000E+00
 -0.11871E+02  0.37524E+01  0.00000E+00
 -0.11375E+02  0.37806E+01  0.00000E+00
 -0.11011E+02  0.38012E+01  0.00000E+00
 -0.10878E+02  0.38088E+01  0.00000E+00
 -0.12864E+02  0.38236E+01  0.00000E+00
 -0.12731E+02  0.38304E+01  0.00000E+00
 -0.12368E+02  0.38489E+01  0.00000E+00
 -0.11872E+02  0.38743E+01  0.00000E+00
 -0.11376E+02  0.38996E+01  0.00000E+00
 -0.11014E+02  0.39182E+01  0.00000E+00
 -0.10881E+02  0.39250E+01  0.00000E+00
 -0.12866E+02  0.41722E+01  0.00000E+00
 -0.12734E+02  0.41769E+01  0.00000E+00
 -0.12371E+02  0.41897E+01  0.00000E+00
 -0.11877E+02  0.42073E+01  0.00000E+00
 -0.11382E+02  0.42249E+01  0.00000E+00
 -0.11020E+02  0.42377E+01  0.00000E+00
 -0.10887E+02  0.42425E+01  0.00000E+00
 -0.12870E+02  0.46484E+01  0.00000E+00
 -0.12738E+02  0.46502E+01  0.00000E+00
 -0.12376E+02  0.46553E+01  0.00000E+00
 -0.11883E+02  0.46622E+01  0.00000E+00
 -0.11389E+02  0.46692E+01  0.00000E+00
 -0.11028E+02  0.46743E+01  0.00000E+00
 -0.10895E+02  0.46761E+01  0.00000E+00
 -0.12874E+02  0.51246E+01  0.00000E+00
 -0.12742E+02  0.51236E+01  0.00000E+00
 -0.12381E+02  0.51209E+01  0.00000E+00
 -0.11889E+02  0.51172E+01  0.00000E+00
 -0.11396E+02  0.51135E+01  0.00000E+00
 -0.11036E+02  0.51108E+01  0.00000E+00
 -0.10904E+02  0.51098E+01  0.00000E+00
 -0.12877E+02  0.54732E+01  0.00000E+00
 -0.12745E+02  0.54701E+01  0.00000E+00
 -0.12385E+02  0.54617E+01  0.00000E+00
 -0.11893E+02  0.54502E+01  0.00000E+00
 -0.11402E+02  0.54387E+01  0.00000E+00
 -0.11042E+02  0.54303E+01  0.00000E+00
 -0.10910E+02  0.54272E+01  0.00000E+00
 -0.12878E+02  0.56008E+01  0.00000E+00
 -0.12746E+02  0.55969E+01  0.00000E+00
 -0.12386E+02  0.55864E+01  0.00000E+00
 -0.11895E+02  0.55721E+01  0.00000E+00
 -0.11404E+02  0.55578E+01  0.00000E+00
 -0.11044E+02  0.55473E+01  0.00000E+00
 -0.10912E+02  0.55434E+01  0.00000E+00
 ZONE I=           7 ,J=           7 , F=POINT
 -0.10878E+02  0.38088E+01  0.00000E+00
 -0.10788E+02  0.38158E+01  0.00000E+00
 -0.10539E+02  0.38351E+01  0.00000E+00
 -0.10199E+02  0.38614E+01  0.00000E+00
 -0.98599E+01  0.38878E+01  0.00000E+00
 -0.96113E+01  0.39070E+01  0.00000E+00
 -0.95203E+01  0.39141E+01  0.00000E+00
 -0.10881E+02  0.39250E+01  0.00000E+00
 -0.10786E+02  0.39300E+01  0.00000E+00
 -0.10528E+02  0.39438E+01  0.00000E+00
 -0.10175E+02  0.39626E+01  0.00000E+00
 -0.98227E+01  0.39814E+01  0.00000E+00
 -0.95645E+01  0.39951E+01  0.00000E+00
 -0.94700E+01  0.40002E+01  0.00000E+00
 -0.10887E+02  0.42425E+01  0.00000E+00
 -0.10783E+02  0.42420E+01  0.00000E+00
 -0.10498E+02  0.42407E+01  0.00000E+00
 -0.10110E+02  0.42389E+01  0.00000E+00
 -0.97212E+01  0.42372E+01  0.00000E+00
 -0.94367E+01  0.42359E+01  0.00000E+00
 -0.93326E+01  0.42354E+01  0.00000E+00
 -0.10895E+02  0.46761E+01  0.00000E+00
 -0.10778E+02  0.46681E+01  0.00000E+00
 -0.10458E+02  0.46463E+01  0.00000E+00
 -0.10020E+02  0.46164E+01  0.00000E+00
 -0.95825E+01  0.45866E+01  0.00000E+00
 -0.92622E+01  0.45648E+01  0.00000E+00
 -0.91449E+01  0.45568E+01  0.00000E+00
 -0.10904E+02  0.51098E+01  0.00000E+00
 -0.10773E+02  0.50943E+01  0.00000E+00
 -0.10417E+02  0.50519E+01  0.00000E+00
 -0.99305E+01  0.49939E+01  0.00000E+00
 -0.94438E+01  0.49360E+01  0.00000E+00
 -0.90876E+01  0.48936E+01  0.00000E+00
 -0.89572E+01  0.48781E+01  0.00000E+00
 -0.10910E+02  0.54272E+01  0.00000E+00
 -0.10770E+02  0.54062E+01  0.00000E+00
 -0.10387E+02  0.53488E+01  0.00000E+00
 -0.98649E+01  0.52703E+01  0.00000E+00
 -0.93423E+01  0.51918E+01  0.00000E+00
 -0.89598E+01  0.51344E+01  0.00000E+00
 -0.88197E+01  0.51134E+01  0.00000E+00
 -0.10912E+02  0.55434E+01  0.00000E+00
 -0.10769E+02  0.55204E+01  0.00000E+00
 -0.10377E+02  0.54574E+01  0.00000E+00
 -0.98409E+01  0.53714E+01  0.00000E+00
 -0.93052E+01  0.52855E+01  0.00000E+00
 -0.89130E+01  0.52225E+01  0.00000E+00
 -0.87694E+01  0.51995E+01  0.00000E+00
 ZONE I=           7 ,J=           7 , F=POINT
  0.10353E+02  0.35616E+01  0.00000E+00
  0.10449E+02  0.35627E+01  0.00000E+00
  0.10711E+02  0.35657E+01  0.00000E+00
  0.11069E+02  0.35698E+01  0.00000E+00
  0.11427E+02  0.35739E+01  0.00000E+00
  0.11689E+02  0.35769E+01  0.00000E+00
  0.11785E+02  0.35779E+01  0.00000E+00
  0.10290E+02  0.36504E+01  0.00000E+00
  0.10389E+02  0.36537E+01  0.00000E+00
  0.10659E+02  0.36626E+01  0.00000E+00
  0.11029E+02  0.36749E+01  0.00000E+00
  0.11398E+02  0.36872E+01  0.00000E+00
  0.11668E+02  0.36962E+01  0.00000E+00
  0.11767E+02  0.36995E+01  0.00000E+00
  0.10119E+02  0.38928E+01  0.00000E+00
  0.10226E+02  0.39021E+01  0.00000E+00
  0.10519E+02  0.39275E+01  0.00000E+00
  0.10919E+02  0.39622E+01  0.00000E+00
  0.11319E+02  0.39969E+01  0.00000E+00
  0.11612E+02  0.40223E+01  0.00000E+00
  0.11719E+02  0.40316E+01  0.00000E+00
  0.98845E+01  0.42240E+01  0.00000E+00
  0.10003E+02  0.42415E+01  0.00000E+00
  0.10327E+02  0.42893E+01  0.00000E+00
  0.10769E+02  0.43546E+01  0.00000E+00
  0.11211E+02  0.44199E+01  0.00000E+00
  0.11534E+02  0.44677E+01  0.00000E+00
  0.11653E+02  0.44852E+01  0.00000E+00
  0.96502E+01  0.45552E+01  0.00000E+00
  0.97800E+01  0.45809E+01  0.00000E+00
  0.10134E+02  0.46511E+01  0.00000E+00
  0.10619E+02  0.47470E+01  0.00000E+00
  0.11103E+02  0.48429E+01  0.00000E+00
  0.11457E+02  0.49131E+01  0.00000E+00
  0.11587E+02  0.49388E+01  0.00000E+00
  0.94787E+01  0.47977E+01  0.00000E+00
  0.96167E+01  0.48294E+01  0.00000E+00
  0.99937E+01  0.49160E+01  0.00000E+00
  0.10509E+02  0.50343E+01  0.00000E+00
  0.11024E+02  0.51526E+01  0.00000E+00
  0.11401E+02  0.52391E+01  0.00000E+00
  0.11539E+02  0.52708E+01  0.00000E+00
  0.94160E+01  0.48864E+01  0.00000E+00
  0.95570E+01  0.49203E+01  0.00000E+00
  0.99422E+01  0.50129E+01  0.00000E+00
  0.10468E+02  0.51394E+01  0.00000E+00
  0.10995E+02  0.52659E+01  0.00000E+00
  0.11380E+02  0.53585E+01  0.00000E+00
  0.11521E+02  0.53924E+01  0.00000E+00
 ZONE I=           7 ,J=           7 , F=POINT
  0.11785E+02  0.35779E+01  0.00000E+00
  0.11919E+02  0.35825E+01  0.00000E+00
  0.12285E+02  0.35949E+01  0.00000E+00
  0.12785E+02  0.36118E+01  0.00000E+00
  0.13286E+02  0.36287E+01  0.00000E+00
  0.13652E+02  0.36411E+01  0.00000E+00
  0.13786E+02  0.36457E+01  0.00000E+00
  0.11767E+02  0.36995E+01  0.00000E+00
  0.11901E+02  0.37045E+01  0.00000E+00
  0.12267E+02  0.37183E+01  0.00000E+00
  0.12766E+02  0.37371E+01  0.00000E+00
  0.13265E+02  0.37559E+01  0.00000E+00
  0.13631E+02  0.37697E+01  0.00000E+00
  0.13765E+02  0.37747E+01  0.00000E+00
  0.11719E+02  0.40316E+01  0.00000E+00
  0.11852E+02  0.40380E+01  0.00000E+00
  0.12216E+02  0.40555E+01  0.00000E+00
  0.12713E+02  0.40794E+01  0.00000E+00
  0.13210E+02  0.41033E+01  0.00000E+00
  0.13574E+02  0.41208E+01  0.00000E+00
  0.13708E+02  0.41272E+01  0.00000E+00
  0.11653E+02  0.44852E+01  0.00000E+00
  0.11785E+02  0.44934E+01  0.00000E+00
  0.12147E+02  0.45161E+01  0.00000E+00
  0.12641E+02  0.45469E+01  0.00000E+00
  0.13135E+02  0.45778E+01  0.00000E+00
  0.13497E+02  0.46004E+01  0.00000E+00
  0.13629E+02  0.46087E+01  0.00000E+00
  0.11587E+02  0.49388E+01  0.00000E+00
  0.11719E+02  0.49489E+01  0.00000E+00
  0.12078E+02  0.49766E+01  0.00000E+00
  0.12569E+02  0.50145E+01  0.00000E+00
  0.13060E+02  0.50524E+01  0.00000E+00
  0.13420E+02  0.50801E+01  0.00000E+00
  0.13551E+02  0.50902E+01  0.00000E+00
  0.11539E+02  0.52708E+01  0.00000E+00
  0.11670E+02  0.52824E+01  0.00000E+00
  0.12027E+02  0.53138E+01  0.00000E+00
  0.12516E+02  0.53568E+01  0.00000E+00
  0.13005E+02  0.53998E+01  0.00000E+00
  0.13363E+02  0.54312E+01  0.00000E+00
  0.13494E+02  0.54427E+01  0.00000E+00
  0.11521E+02  0.53924E+01  0.00000E+00
  0.11652E+02  0.54044E+01  0.00000E+00
  0.12009E+02  0.54372E+01  0.00000E+00
  0.12497E+02  0.54821E+01  0.00000E+00
  0.12985E+02  0.55269E+01  0.00000E+00
  0.13342E+02  0.55598E+01  0.00000E+00
  0.13473E+02  0.55718E+01  0.00000E+00
 ZONE I=           7 ,J=           7 , F=POINT
  0.13786E+02  0.36457E+01  0.00000E+00
  0.13919E+02  0.36600E+01  0.00000E+00
  0.14282E+02  0.36990E+01  0.00000E+00
  0.14778E+02  0.37524E+01  0.00000E+00
  0.15274E+02  0.38057E+01  0.00000E+00
  0.15637E+02  0.38447E+01  0.00000E+00
  0.15770E+02  0.38590E+01  0.00000E+00
  0.13765E+02  0.37747E+01  0.00000E+00
  0.13898E+02  0.37886E+01  0.00000E+00
  0.14261E+02  0.38267E+01  0.00000E+00
  0.14756E+02  0.38787E+01  0.00000E+00
  0.15252E+02  0.39307E+01  0.00000E+00
  0.15615E+02  0.39687E+01  0.00000E+00
  0.15748E+02  0.39827E+01  0.00000E+00
  0.13708E+02  0.41272E+01  0.00000E+00
  0.13840E+02  0.41401E+01  0.00000E+00
  0.14202E+02  0.41755E+01  0.00000E+00
  0.14697E+02  0.42238E+01  0.00000E+00
  0.15192E+02  0.42721E+01  0.00000E+00
  0.15554E+02  0.43075E+01  0.00000E+00
  0.15687E+02  0.43204E+01  0.00000E+00
  0.13629E+02  0.46087E+01  0.00000E+00
  0.13762E+02  0.46203E+01  0.00000E+00
  0.14123E+02  0.46520E+01  0.00000E+00
  0.14616E+02  0.46953E+01  0.00000E+00
  0.15110E+02  0.47385E+01  0.00000E+00
  0.15471E+02  0.47702E+01  0.00000E+00
  0.15603E+02  0.47818E+01  0.00000E+00
  0.13551E+02  0.50902E+01  0.00000E+00
  0.13683E+02  0.51005E+01  0.00000E+00
  0.14043E+02  0.51285E+01  0.00000E+00
  0.14535E+02  0.51667E+01  0.00000E+00
  0.15027E+02  0.52050E+01  0.00000E+00
  0.15387E+02  0.52330E+01  0.00000E+00
  0.15519E+02  0.52432E+01  0.00000E+00
  0.13494E+02  0.54427E+01  0.00000E+00
  0.13625E+02  0.54520E+01  0.00000E+00
  0.13985E+02  0.54773E+01  0.00000E+00
  0.14476E+02  0.55119E+01  0.00000E+00
  0.14967E+02  0.55464E+01  0.00000E+00
  0.15327E+02  0.55717E+01  0.00000E+00
  0.15458E+02  0.55810E+01  0.00000E+00
  0.13473E+02  0.55718E+01  0.00000E+00
  0.13604E+02  0.55807E+01  0.00000E+00
  0.13964E+02  0.56050E+01  0.00000E+00
  0.14454E+02  0.56382E+01  0.00000E+00
  0.14945E+02  0.56714E+01  0.00000E+00
  0.15304E+02  0.56957E+01  0.00000E+00
  0.15436E+02  0.57046E+01  0.00000E+00
 ZONE I=           7 ,J=           7 , F=POINT
  0.15770E+02  0.38590E+01  0.00000E+00
  0.15867E+02  0.38728E+01  0.00000E+00
  0.16132E+02  0.39104E+01  0.00000E+00
  0.16494E+02  0.39617E+01  0.00000E+00
  0.16855E+02  0.40131E+01  0.00000E+00
  0.17120E+02  0.40506E+01  0.00000E+00
  0.17217E+02  0.40644E+01  0.00000E+00
  0.15748E+02  0.39827E+01  0.00000E+00
  0.15848E+02  0.39956E+01  0.00000E+00
  0.16123E+02  0.40309E+01  0.00000E+00
  0.16498E+02  0.40791E+01  0.00000E+00
  0.16874E+02  0.41273E+01  0.00000E+00
  0.17148E+02  0.41626E+01  0.00000E+00
  0.17249E+02  0.41755E+01  0.00000E+00
  0.15687E+02  0.43204E+01  0.00000E+00
  0.15797E+02  0.43311E+01  0.00000E+00
  0.16099E+02  0.43601E+01  0.00000E+00
  0.16511E+02  0.43998E+01  0.00000E+00
  0.16924E+02  0.44394E+01  0.00000E+00
  0.17225E+02  0.44685E+01  0.00000E+00
  0.17336E+02  0.44791E+01  0.00000E+00
  0.15603E+02  0.47818E+01  0.00000E+00
  0.15727E+02  0.47893E+01  0.00000E+00
  0.16066E+02  0.48098E+01  0.00000E+00
  0.16529E+02  0.48378E+01  0.00000E+00
  0.16992E+02  0.48658E+01  0.00000E+00
  0.17331E+02  0.48863E+01  0.00000E+00
  0.17455E+02  0.48938E+01  0.00000E+00
  0.15519E+02  0.52432E+01  0.00000E+00
  0.15657E+02  0.52476E+01  0.00000E+00
  0.16033E+02  0.52596E+01  0.00000E+00
  0.16546E+02  0.52759E+01  0.00000E+00
  0.17060E+02  0.52922E+01  0.00000E+00
  0.17436E+02  0.53042E+01  0.00000E+00
  0.17573E+02  0.53086E+01  0.00000E+00
  0.15458E+02  0.55810E+01  0.00000E+00
  0.15606E+02  0.55831E+01  0.00000E+00
  0.16009E+02  0.55888E+01  0.00000E+00
  0.16559E+02  0.55966E+01  0.00000E+00
  0.17110E+02  0.56044E+01  0.00000E+00
  0.17513E+02  0.56101E+01  0.00000E+00
  0.17660E+02  0.56122E+01  0.00000E+00
  0.15436E+02  0.57046E+01  0.00000E+00
  0.15587E+02  0.57059E+01  0.00000E+00
  0.16000E+02  0.57093E+01  0.00000E+00
  0.16564E+02  0.57139E+01  0.00000E+00
  0.17128E+02  0.57186E+01  0.00000E+00
  0.17541E+02  0.57220E+01  0.00000E+00
  0.17692E+02  0.57233E+01  0.00000E+00
 ZONE I=           7 ,J=           7 , F=POINT
 -0.18330E+02  0.55616E+01  0.00000E+00
 -0.18216E+02  0.55707E+01  0.00000E+00
 -0.17906E+02  0.55955E+01  0.00000E+00
 -0.17481E+02  0.56293E+01  0.00000E+00
 -0.17057E+02  0.56632E+01  0.00000E+00
 -0.16747E+02  0.56880E+01  0.00000E+00
 -0.16633E+02  0.56970E+01  0.00000E+00
 -0.18340E+02  0.56875E+01  0.00000E+00
 -0.18226E+02  0.56960E+01  0.00000E+00
 -0.17913E+02  0.57193E+01  0.00000E+00
 -0.17486E+02  0.57511E+01  0.00000E+00
 -0.17059E+02  0.57828E+01  0.00000E+00
 -0.16747E+02  0.58061E+01  0.00000E+00
 -0.16632E+02  0.58146E+01  0.00000E+00
 -0.18368E+02  0.60315E+01  0.00000E+00
 -0.18252E+02  0.60385E+01  0.00000E+00
 -0.17934E+02  0.60576E+01  0.00000E+00
 -0.17500E+02  0.60837E+01  0.00000E+00
 -0.17065E+02  0.61098E+01  0.00000E+00
 -0.16747E+02  0.61289E+01  0.00000E+00
 -0.16631E+02  0.61359E+01  0.00000E+00
 -0.18407E+02  0.65013E+01  0.00000E+00
 -0.18288E+02  0.65062E+01  0.00000E+00
 -0.17962E+02  0.65197E+01  0.00000E+00
 -0.17518E+02  0.65380E+01  0.00000E+00
 -0.17073E+02  0.65563E+01  0.00000E+00
 -0.16748E+02  0.65698E+01  0.00000E+00
 -0.16629E+02  0.65747E+01  0.00000E+00
 -0.18445E+02  0.69712E+01  0.00000E+00
 -0.18324E+02  0.69740E+01  0.00000E+00
 -0.17991E+02  0.69818E+01  0.00000E+00
 -0.17536E+02  0.69923E+01  0.00000E+00
 -0.17081E+02  0.70029E+01  0.00000E+00
 -0.16748E+02  0.70107E+01  0.00000E+00
 -0.16626E+02  0.70135E+01  0.00000E+00
 -0.18474E+02  0.73152E+01  0.00000E+00
 -0.18350E+02  0.73165E+01  0.00000E+00
 -0.18011E+02  0.73201E+01  0.00000E+00
 -0.17549E+02  0.73250E+01  0.00000E+00
 -0.17087E+02  0.73298E+01  0.00000E+00
 -0.16748E+02  0.73334E+01  0.00000E+00
 -0.16625E+02  0.73347E+01  0.00000E+00
 -0.18484E+02  0.74411E+01  0.00000E+00
 -0.18359E+02  0.74418E+01  0.00000E+00
 -0.18019E+02  0.74439E+01  0.00000E+00
 -0.17554E+02  0.74467E+01  0.00000E+00
 -0.17089E+02  0.74495E+01  0.00000E+00
 -0.16749E+02  0.74516E+01  0.00000E+00
 -0.16624E+02  0.74523E+01  0.00000E+00
 ZONE I=           7 ,J=           7 , F=POINT
 -0.16633E+02  0.56970E+01  0.00000E+00
 -0.16511E+02  0.56935E+01  0.00000E+00
 -0.16179E+02  0.56839E+01  0.00000E+00
 -0.15725E+02  0.56708E+01  0.00000E+00
 -0.15271E+02  0.56577E+01  0.00000E+00
 -0.14939E+02  0.56480E+01  0.00000E+00
 -0.14818E+02  0.56445E+01  0.00000E+00
 -0.16632E+02  0.58146E+01  0.00000E+00
 -0.16511E+02  0.58114E+01  0.00000E+00
 -0.16178E+02  0.58027E+01  0.00000E+00
 -0.15724E+02  0.57908E+01  0.00000E+00
 -0.15270E+02  0.57789E+01  0.00000E+00
 -0.14938E+02  0.57702E+01  0.00000E+00
 -0.14816E+02  0.57670E+01  0.00000E+00
 -0.16631E+02  0.61359E+01  0.00000E+00
 -0.16509E+02  0.61336E+01  0.00000E+00
 -0.16176E+02  0.61273E+01  0.00000E+00
 -0.15721E+02  0.61187E+01  0.00000E+00
 -0.15266E+02  0.61101E+01  0.00000E+00
 -0.14933E+02  0.61038E+01  0.00000E+00
 -0.14811E+02  0.61015E+01  0.00000E+00
 -0.16629E+02  0.65747E+01  0.00000E+00
 -0.16506E+02  0.65736E+01  0.00000E+00
 -0.16173E+02  0.65706E+01  0.00000E+00
 -0.15717E+02  0.65665E+01  0.00000E+00
 -0.15261E+02  0.65625E+01  0.00000E+00
 -0.14927E+02  0.65595E+01  0.00000E+00
 -0.14805E+02  0.65584E+01  0.00000E+00
 -0.16626E+02  0.70135E+01  0.00000E+00
 -0.16504E+02  0.70136E+01  0.00000E+00
 -0.16169E+02  0.70140E+01  0.00000E+00
 -0.15712E+02  0.70144E+01  0.00000E+00
 -0.15255E+02  0.70149E+01  0.00000E+00
 -0.14921E+02  0.70152E+01  0.00000E+00
 -0.14798E+02  0.70153E+01  0.00000E+00
 -0.16625E+02  0.73347E+01  0.00000E+00
 -0.16502E+02  0.73357E+01  0.00000E+00
 -0.16167E+02  0.73385E+01  0.00000E+00
 -0.15709E+02  0.73423E+01  0.00000E+00
 -0.15251E+02  0.73461E+01  0.00000E+00
 -0.14916E+02  0.73488E+01  0.00000E+00
 -0.14794E+02  0.73498E+01  0.00000E+00
 -0.16624E+02  0.74523E+01  0.00000E+00
 -0.16501E+02  0.74537E+01  0.00000E+00
 -0.16166E+02  0.74573E+01  0.00000E+00
 -0.15708E+02  0.74623E+01  0.00000E+00
 -0.15250E+02  0.74673E+01  0.00000E+00
 -0.14915E+02  0.74709E+01  0.00000E+00
 -0.14792E+02  0.74723E+01  0.00000E+00
 ZONE I=           7 ,J=           7 , F=POINT
 -0.14818E+02  0.56445E+01  0.00000E+00
 -0.14688E+02  0.56416E+01  0.00000E+00
 -0.14333E+02  0.56336E+01  0.00000E+00
 -0.13848E+02  0.56226E+01  0.00000E+00
 -0.13363E+02  0.56117E+01  0.00000E+00
 -0.13008E+02  0.56037E+01  0.00000E+00
 -0.12878E+02  0.56008E+01  0.00000E+00
 -0.14816E+02  0.57670E+01  0.00000E+00
 -0.14686E+02  0.57643E+01  0.00000E+00
 -0.14331E+02  0.57569E+01  0.00000E+00
 -0.13847E+02  0.57469E+01  0.00000E+00
 -0.13362E+02  0.57369E+01  0.00000E+00
 -0.13007E+02  0.57296E+01  0.00000E+00
 -0.12877E+02  0.57269E+01  0.00000E+00
 -0.14811E+02  0.61015E+01  0.00000E+00
 -0.14682E+02  0.60995E+01  0.00000E+00
 -0.14328E+02  0.60940E+01  0.00000E+00
 -0.13844E+02  0.60865E+01  0.00000E+00
 -0.13361E+02  0.60790E+01  0.00000E+00
 -0.13007E+02  0.60735E+01  0.00000E+00
 -0.12877E+02  0.60715E+01  0.00000E+00
 -0.14805E+02  0.65584E+01  0.00000E+00
 -0.14676E+02  0.65573E+01  0.00000E+00
 -0.14323E+02  0.65544E+01  0.00000E+00
 -0.13841E+02  0.65503E+01  0.00000E+00
 -0.13359E+02  0.65463E+01  0.00000E+00
 -0.13006E+02  0.65433E+01  0.00000E+00
 -0.12877E+02  0.65423E+01  0.00000E+00
 -0.14798E+02  0.70153E+01  0.00000E+00
 -0.14670E+02  0.70152E+01  0.00000E+00
 -0.14318E+02  0.70148E+01  0.00000E+00
 -0.13837E+02  0.70142E+01  0.00000E+00
 -0.13357E+02  0.70136E+01  0.00000E+00
 -0.13005E+02  0.70132E+01  0.00000E+00
 -0.12876E+02  0.70130E+01  0.00000E+00
 -0.14794E+02  0.73498E+01  0.00000E+00
 -0.14665E+02  0.73504E+01  0.00000E+00
 -0.14314E+02  0.73518E+01  0.00000E+00
 -0.13835E+02  0.73537E+01  0.00000E+00
 -0.13356E+02  0.73557E+01  0.00000E+00
 -0.13005E+02  0.73571E+01  0.00000E+00
 -0.12876E+02  0.73576E+01  0.00000E+00
 -0.14792E+02  0.74723E+01  0.00000E+00
 -0.14664E+02  0.74730E+01  0.00000E+00
 -0.14313E+02  0.74751E+01  0.00000E+00
 -0.13834E+02  0.74780E+01  0.00000E+00
 -0.13355E+02  0.74809E+01  0.00000E+00
 -0.13004E+02  0.74830E+01  0.00000E+00
 -0.12876E+02  0.74838E+01  0.00000E+00
 ZONE I=           7 ,J=           7 , F=POINT
 -0.12878E+02  0.56008E+01  0.00000E+00
 -0.12746E+02  0.55969E+01  0.00000E+00
 -0.12386E+02  0.55864E+01  0.00000E+00
 -0.11895E+02  0.55721E+01  0.00000E+00
 -0.11404E+02  0.55578E+01  0.00000E+00
 -0.11044E+02  0.55473E+01  0.00000E+00
 -0.10912E+02  0.55434E+01  0.00000E+00
 -0.12877E+02  0.57269E+01  0.00000E+00
 -0.12746E+02  0.57231E+01  0.00000E+00
 -0.12386E+02  0.57128E+01  0.00000E+00
 -0.11894E+02  0.56986E+01  0.00000E+00
 -0.11402E+02  0.56845E+01  0.00000E+00
 -0.11042E+02  0.56741E+01  0.00000E+00
 -0.10910E+02  0.56703E+01  0.00000E+00
 -0.12877E+02  0.60715E+01  0.00000E+00
 -0.12745E+02  0.60679E+01  0.00000E+00
 -0.12384E+02  0.60579E+01  0.00000E+00
 -0.11890E+02  0.60443E+01  0.00000E+00
 -0.11397E+02  0.60307E+01  0.00000E+00
 -0.11036E+02  0.60207E+01  0.00000E+00
 -0.10904E+02  0.60171E+01  0.00000E+00
 -0.12877E+02  0.65423E+01  0.00000E+00
 -0.12744E+02  0.65388E+01  0.00000E+00
 -0.12381E+02  0.65294E+01  0.00000E+00
 -0.11886E+02  0.65165E+01  0.00000E+00
 -0.11390E+02  0.65036E+01  0.00000E+00
 -0.11028E+02  0.64941E+01  0.00000E+00
 -0.10895E+02  0.64907E+01  0.00000E+00
 -0.12876E+02  0.70130E+01  0.00000E+00
 -0.12743E+02  0.70097E+01  0.00000E+00
 -0.12379E+02  0.70008E+01  0.00000E+00
 -0.11881E+02  0.69887E+01  0.00000E+00
 -0.11384E+02  0.69765E+01  0.00000E+00
 -0.11019E+02  0.69676E+01  0.00000E+00
 -0.10886E+02  0.69643E+01  0.00000E+00
 -0.12876E+02  0.73576E+01  0.00000E+00
 -0.12742E+02  0.73545E+01  0.00000E+00
 -0.12377E+02  0.73460E+01  0.00000E+00
 -0.11878E+02  0.73343E+01  0.00000E+00
 -0.11379E+02  0.73227E+01  0.00000E+00
 -0.11013E+02  0.73142E+01  0.00000E+00
 -0.10880E+02  0.73110E+01  0.00000E+00
 -0.12876E+02  0.74838E+01  0.00000E+00
 -0.12742E+02  0.74807E+01  0.00000E+00
 -0.12376E+02  0.74723E+01  0.00000E+00
 -0.11877E+02  0.74609E+01  0.00000E+00
 -0.11377E+02  0.74494E+01  0.00000E+00
 -0.11011E+02  0.74410E+01  0.00000E+00
 -0.10877E+02  0.74379E+01  0.00000E+00
 ZONE I=           7 ,J=           7 , F=POINT
 -0.10912E+02  0.55434E+01  0.00000E+00
 -0.10769E+02  0.55204E+01  0.00000E+00
 -0.10377E+02  0.54574E+01  0.00000E+00
 -0.98409E+01  0.53714E+01  0.00000E+00
 -0.93052E+01  0.52855E+01  0.00000E+00
 -0.89130E+01  0.52225E+01  0.00000E+00
 -0.87694E+01  0.51995E+01  0.00000E+00
 -0.10910E+02  0.56703E+01  0.00000E+00
 -0.10767E+02  0.56484E+01  0.00000E+00
 -0.10376E+02  0.55885E+01  0.00000E+00
 -0.98417E+01  0.55067E+01  0.00000E+00
 -0.93075E+01  0.54248E+01  0.00000E+00
 -0.89164E+01  0.53649E+01  0.00000E+00
 -0.87733E+01  0.53430E+01  0.00000E+00
 -0.10904E+02  0.60171E+01  0.00000E+00
 -0.10762E+02  0.59982E+01  0.00000E+00
 -0.10374E+02  0.59466E+01  0.00000E+00
 -0.98437E+01  0.58761E+01  0.00000E+00
 -0.93138E+01  0.58057E+01  0.00000E+00
 -0.89259E+01  0.57541E+01  0.00000E+00
 -0.87839E+01  0.57352E+01  0.00000E+00
 -0.10895E+02  0.64907E+01  0.00000E+00
 -0.10754E+02  0.64760E+01  0.00000E+00
 -0.10371E+02  0.64358E+01  0.00000E+00
 -0.98465E+01  0.63808E+01  0.00000E+00
 -0.93224E+01  0.63259E+01  0.00000E+00
 -0.89387E+01  0.62857E+01  0.00000E+00
 -0.87983E+01  0.62710E+01  0.00000E+00
 -0.10886E+02  0.69643E+01  0.00000E+00
 -0.10747E+02  0.69538E+01  0.00000E+00
 -0.10368E+02  0.69249E+01  0.00000E+00
 -0.98494E+01  0.68855E+01  0.00000E+00
 -0.93310E+01  0.68461E+01  0.00000E+00
 -0.89516E+01  0.68173E+01  0.00000E+00
 -0.88127E+01  0.68067E+01  0.00000E+00
 -0.10880E+02  0.73110E+01  0.00000E+00
 -0.10742E+02  0.73035E+01  0.00000E+00
 -0.10366E+02  0.72830E+01  0.00000E+00
 -0.98514E+01  0.72550E+01  0.00000E+00
 -0.93374E+01  0.72269E+01  0.00000E+00
 -0.89610E+01  0.72064E+01  0.00000E+00
 -0.88233E+01  0.71989E+01  0.00000E+00
 -0.10877E+02  0.74379E+01  0.00000E+00
 -0.10740E+02  0.74315E+01  0.00000E+00
 -0.10365E+02  0.74141E+01  0.00000E+00
 -0.98522E+01  0.73902E+01  0.00000E+00
 -0.93397E+01  0.73663E+01  0.00000E+00
 -0.89645E+01  0.73489E+01  0.00000E+00
 -0.88271E+01  0.73425E+01  0.00000E+00
 ZONE I=           7 ,J=           7 , F=POINT
 -0.87694E+01  0.51995E+01  0.00000E+00
 -0.86662E+01  0.52240E+01  0.00000E+00
 -0.83842E+01  0.52911E+01  0.00000E+00
 -0.79989E+01  0.53827E+01  0.00000E+00
 -0.76137E+01  0.54744E+01  0.00000E+00
 -0.73316E+01  0.55414E+01  0.00000E+00
 -0.72284E+01  0.55660E+01  0.00000E+00
 -0.87733E+01  0.53430E+01  0.00000E+00
 -0.86667E+01  0.53646E+01  0.00000E+00
 -0.83756E+01  0.54235E+01  0.00000E+00
 -0.79779E+01  0.55040E+01  0.00000E+00
 -0.75801E+01  0.55845E+01  0.00000E+00
 -0.72890E+01  0.56434E+01  0.00000E+00
 -0.71824E+01  0.56650E+01  0.00000E+00
 -0.87839E+01  0.57352E+01  0.00000E+00
 -0.86682E+01  0.57486E+01  0.00000E+00
 -0.83521E+01  0.57852E+01  0.00000E+00
 -0.79203E+01  0.58353E+01  0.00000E+00
 -0.74885E+01  0.58853E+01  0.00000E+00
 -0.71724E+01  0.59219E+01  0.00000E+00
 -0.70567E+01  0.59353E+01  0.00000E+00
 -0.87983E+01  0.62710E+01  0.00000E+00
 -0.86701E+01  0.62732E+01  0.00000E+00
 -0.83200E+01  0.62794E+01  0.00000E+00
 -0.78416E+01  0.62878E+01  0.00000E+00
 -0.73633E+01  0.62962E+01  0.00000E+00
 -0.70131E+01  0.63024E+01  0.00000E+00
 -0.68849E+01  0.63047E+01  0.00000E+00
 -0.88127E+01  0.68067E+01  0.00000E+00
 -0.86721E+01  0.67978E+01  0.00000E+00
 -0.82878E+01  0.67735E+01  0.00000E+00
 -0.77630E+01  0.67404E+01  0.00000E+00
 -0.72381E+01  0.67072E+01  0.00000E+00
 -0.68538E+01  0.66829E+01  0.00000E+00
 -0.67132E+01  0.66740E+01  0.00000E+00
 -0.88233E+01  0.71989E+01  0.00000E+00
 -0.86735E+01  0.71819E+01  0.00000E+00
 -0.82643E+01  0.71353E+01  0.00000E+00
 -0.77054E+01  0.70716E+01  0.00000E+00
 -0.71464E+01  0.70080E+01  0.00000E+00
 -0.67373E+01  0.69614E+01  0.00000E+00
 -0.65875E+01  0.69444E+01  0.00000E+00
 -0.88271E+01  0.73425E+01  0.00000E+00
 -0.86740E+01  0.73224E+01  0.00000E+00
 -0.82557E+01  0.72677E+01  0.00000E+00