 VARIABLES = "X", "Y", "Z"
 ZONE F=FEPOINT, ET=QUADRILATERAL, N=        2865 E=        2392
   13052.980795527232       -1684.3925816043547        0.0000000000000000     
   13349.877611094731       -1679.5973231120861        0.0000000000000000     
   13718.359702289654       -1737.0100845569391        0.0000000000000000     
   14359.743142328203       -1758.2011622718985        0.0000000000000000     
   14913.404554818693       -1607.5454075174339        0.0000000000000000     
   12089.008522062548       -1280.5092499915540        0.0000000000000000     
   12402.925818849910       -1288.5734807085616        0.0000000000000000     
   13313.135044227933       -1244.3573332015005        0.0000000000000000     
   13846.372661229070       -1258.9076124721455        0.0000000000000000     
   14350.396278844859       -1138.0517325525457        0.0000000000000000     
   14930.058893426663       -1260.2148176372309        0.0000000000000000     
   15460.398070335521       -1098.8090246676807        0.0000000000000000     
   15944.217663744485       -1075.5247739494964        0.0000000000000000     
   12100.940048790215       -764.67699695349108        0.0000000000000000     
   12706.430948300440       -909.56147880560241        0.0000000000000000     
   13213.587248484808       -652.80243183361176        0.0000000000000000     
   13796.291558836432       -656.67301616543114        0.0000000000000000     
   14342.754717876356       -650.28311928871278        0.0000000000000000     
   14902.706341888937       -645.33496750484699        0.0000000000000000     
   15536.057418022860       -626.34765797822820        0.0000000000000000     
   15960.605155596864       -628.23295652063007        0.0000000000000000     
   16545.063768540404       -590.40064400097492        0.0000000000000000     
   12656.590563692245       -91.160145511863746        0.0000000000000000     
   13301.468207479706       -110.26240401004910        0.0000000000000000     
   13783.023286387981       -105.40657385323124        0.0000000000000000     
   14331.396877702220       -99.235463334342398        0.0000000000000000     
   14891.099828918819       -92.861249930620559        0.0000000000000000     
   15390.447278031033       -81.375721551287157        0.0000000000000000     
   15984.963255967337       -85.587912654265821        0.0000000000000000     
   16508.138721707859       -146.35473537488835        0.0000000000000000     
   11567.384009875736        421.59786930933979        0.0000000000000000     
   12163.960170635544        433.75048855269176        0.0000000000000000     
   12687.648052751809        467.05266483702059        0.0000000000000000     
   13174.129636247140        387.41067637253036        0.0000000000000000     
   13769.956293844169        440.20090804178682        0.0000000000000000     
   14325.889166419049        451.44074933726654        0.0000000000000000     
   14887.797924123246        457.84470941430737        0.0000000000000000     
   15548.373897391059        482.70426077882024        0.0000000000000000     
   11516.164150075765        972.61622408327423        0.0000000000000000     
   12163.446920251310        1062.9154096316765        0.0000000000000000     
   12609.830281784758        952.56031142657139        0.0000000000000000     
   13202.334068139757        984.65931615160559        0.0000000000000000     
   13764.475459893936        994.42922560856721        0.0000000000000000     
   14323.186930129277        1001.0909712098234        0.0000000000000000     
   14881.077787251117        999.73808279324840        0.0000000000000000     
   15380.885381465194        995.52437030620558        0.0000000000000000     
   16050.889629895953        961.71802569620820        0.0000000000000000     
   16603.195280188003        1085.7318682849441        0.0000000000000000     
   17019.146629816816        1187.2685284971067        0.0000000000000000     
   11643.700900847605        1517.6459620984590        0.0000000000000000     
   12042.392208379559        1548.5572900441389        0.0000000000000000     
   12653.289441402081        1548.1547333062326        0.0000000000000000     
   13210.213989884714        1546.5408158379691        0.0000000000000000     
   13768.010717383973        1550.9491721886911        0.0000000000000000     
   14322.530075181354        1551.3548485487242        0.0000000000000000     
   14879.509088118939        1543.4540458849212        0.0000000000000000     
   15485.419045792412        1498.8990636169656        0.0000000000000000     
   15990.763334117475        1622.2149237935071        0.0000000000000000     
   16529.764085226259        1512.8893544066368        0.0000000000000000     
   16999.353790571062        1722.2039728519244        0.0000000000000000     
   8794.6951056180387        2106.6791546405930        0.0000000000000000     
   9286.8646961406084        2023.6031204423236        0.0000000000000000     
   11647.918379778577        2033.5004483294354        0.0000000000000000     
   12177.494875318824        2096.8549135482735        0.0000000000000000     
   12660.478044605437        2102.8969645650845        0.0000000000000000     
   13215.330279371852        2104.2371183854652        0.0000000000000000     
   13769.472356822438        2104.0386792989598        0.0000000000000000     
   14322.416560581278        2102.8996379720870        0.0000000000000000     
   14878.950107006483        2098.7450184783820        0.0000000000000000     
   15435.508364451352        2102.2942963122937        0.0000000000000000     
   15986.061980027072        2114.1971241488623        0.0000000000000000     
   16523.644329982213        2124.7318395871011        0.0000000000000000     
   17021.341449585139        2159.5256746875621        0.0000000000000000     
   7170.5289525635799        2654.8346891630576        0.0000000000000000     
   8900.0334784836796        2678.8478939214101        0.0000000000000000     
   9365.7343663918909        2630.1751536397064        0.0000000000000000     
   10012.010021902035        2695.7299893430609        0.0000000000000000     
   10515.674680043297        2692.6289182909700        0.0000000000000000     
   11058.497329055415        2603.5884801818202        0.0000000000000000     
   11607.691314691021        2642.7922976610944        0.0000000000000000     
   12029.396251165588        2642.4605280025148        0.0000000000000000     
   12651.271035794032        2660.9374730772643        0.0000000000000000     
   13212.788044159610        2661.2567313644608        0.0000000000000000     
   13769.790443436790        2656.1745976090751        0.0000000000000000     
   14322.171717726096        2655.1260706811750        0.0000000000000000     
   14874.436907217398        2656.5260804691243        0.0000000000000000     
   15426.488599438462        2660.6356857860596        0.0000000000000000     
   15979.232014652604        2669.4792861632673        0.0000000000000000     
   16585.455906668481        2711.1859978201510        0.0000000000000000     
   17099.438218679665        2581.2514134481080        0.0000000000000000     
   4443.2387863705144        3184.1592757968078        0.0000000000000000     
   7188.6706954594783        3220.0341009926506        0.0000000000000000     
   7718.3509876609696        3208.7434840752844        0.0000000000000000     
   8306.6332114761335        3171.7242559130714        0.0000000000000000     
   8820.2894427738684        3185.8592010160737        0.0000000000000000     
   9343.9305663101386        3228.8761386184838        0.0000000000000000     
   9900.8016125202012        3209.8699774660213        0.0000000000000000     
   10454.502899396790        3215.7288402845097        0.0000000000000000     
   11043.865837182524        3229.5584373051829        0.0000000000000000     
   11570.857585937596        3241.2096174594994        0.0000000000000000     
   12130.066611987828        3179.7915237180896        0.0000000000000000     
   12618.317196845472        3263.0441420698858        0.0000000000000000     
   13216.666405410297        3215.2233558521962        0.0000000000000000     
   13770.632015933696        3207.1056857919011        0.0000000000000000     
   14322.752828200266        3207.8822220650541        0.0000000000000000     
   14874.558967940844        3213.5276005218411        0.0000000000000000     
   15424.438271551733        3224.8301258887604        0.0000000000000000     
   15968.673074416452        3225.5855963719564        0.0000000000000000     
   16450.217152820660        3208.1791853799882        0.0000000000000000     
   17087.592344681023        3240.2354388877284        0.0000000000000000     
   4424.7747616550341        3752.2284442516525        0.0000000000000000     
   6619.8657947327774        3749.1430207641379        0.0000000000000000     
   8265.2268800902348        3755.3859759102747        0.0000000000000000     
   8819.8508836279852        3762.9942202491602        0.0000000000000000     
   10501.057628117638        3653.9057709900317        0.0000000000000000     
   10991.999384764227        3747.8221525760287        0.0000000000000000     
   11537.834659261562        3752.1154266161907        0.0000000000000000     
   12078.305630592396        3759.4055948565192        0.0000000000000000     
   12742.760417560046        3755.0086012893298        0.0000000000000000     
   13224.159928438174        3754.8274186227600        0.0000000000000000     
   13771.302193092437        3756.3303551107256        0.0000000000000000     
   14323.289804850485        3761.8886250422324        0.0000000000000000     
   14877.109944715323        3777.4130763749049        0.0000000000000000     
   15416.817720672538        3793.7015058598772        0.0000000000000000     
   15959.661217544379        3855.8047460930429        0.0000000000000000     
   16527.676466319794        3660.0973647872352        0.0000000000000000     
   16900.868845928555        3721.4364185347549        0.0000000000000000     
   3884.1870542109659        4273.2962209761827        0.0000000000000000     
   4417.8077407147139        4307.8654389240819        0.0000000000000000     
   4966.6132619468017        4304.5351518095495        0.0000000000000000     
   5528.1552590416331        4305.9253800179667        0.0000000000000000     
   6080.5695190723081        4301.5482956416135        0.0000000000000000     
   12129.975357400635        4310.0625032761682        0.0000000000000000     
   12638.827445252584        4236.5648700088386        0.0000000000000000     
   13221.325793534110        4291.8113445806857        0.0000000000000000     
   13769.174439106349        4306.1752586003195        0.0000000000000000     
   14320.241202983809        4317.1709157916457        0.0000000000000000     
   14868.632199042206        4345.1512633915372        0.0000000000000000     
   15447.058998617749        4422.9515057650024        0.0000000000000000     
   15790.200932068878        4248.3623980280572        0.0000000000000000     
   3386.8311781914999        4843.6925858800341        0.0000000000000000     
   3866.2021878588848        4854.8917161583577        0.0000000000000000     
   4970.7633010000491        4851.8364042482344        0.0000000000000000     
   5507.7932304495289        4858.1314981790447        0.0000000000000000     
   12282.671143926191        4768.8283308591135        0.0000000000000000     
   12717.031000227687        4807.4824068067064        0.0000000000000000     
   13222.177387094636        4835.7916985321153        0.0000000000000000     
   13758.306995349825        4861.4331202206004        0.0000000000000000     
   14310.327869665371        4877.6054123838512        0.0000000000000000     
   14844.974994743188        4899.3853171103838        0.0000000000000000     
   15299.368168238070        4982.5979989421639        0.0000000000000000     
   2224.7013818768455        5401.0595945282112        0.0000000000000000     
   2772.4524844783800        5399.4105414505957        0.0000000000000000     
   12343.645044342788        5198.8670719357387        0.0000000000000000     
   12776.225538669860        5362.4514201157554        0.0000000000000000     
   13224.634656681250        5320.6235514322334        0.0000000000000000     
   13702.106360759995        5470.3539162947682        0.0000000000000000     
   14288.891371635516        5431.3756606236057        0.0000000000000000     
   14850.891301025287        5472.6043424501204        0.0000000000000000     
   15265.028520030566        5392.6075941939871        0.0000000000000000     
   12614.899956600082        5778.6718123635337        0.0000000000000000     
   13207.003402140190        5944.4941483486600        0.0000000000000000     
   13764.540823101477        6045.1064036870875        0.0000000000000000     
   14257.817229725317        5937.7786882581831        0.0000000000000000     
   14688.980550126633        5913.2967476809545        0.0000000000000000     
   12651.914769411089        6504.0398603546855        0.0000000000000000     
   13218.499362371289        6430.2236150799145        0.0000000000000000     
   13470.701222788957        6320.2624703354186        0.0000000000000000     
   14207.530588718600       -2036.3240959606073        0.0000000000000000     
   14397.275791274695       -1988.0461688022738        0.0000000000000000     
   14067.680482074229       -1841.3368701382080        0.0000000000000000     
   14585.711671932973       -1945.0547745858016        0.0000000000000000     
   14677.283001228814       -1734.4676895885466        0.0000000000000000     
   12181.943987760566       -1522.4132005642443        0.0000000000000000     
   11858.951671372528       -1215.6672190950387        0.0000000000000000     
   12047.823545974068       -1537.6820241521202        0.0000000000000000     
   11827.189884104251       -1370.8739107963577        0.0000000000000000     
   12337.503088012500       -1547.0336969166626        0.0000000000000000     
   14088.125501372830       -1528.0539239665902        0.0000000000000000     
   14349.014615620479       -1493.5895994685206        0.0000000000000000     
   14603.016071372533       -1500.5448457775917        0.0000000000000000     
   15770.631944516317       -1083.9618398041991        0.0000000000000000     
   11885.473263150554       -1059.5136044779308        0.0000000000000000     
   12052.138494050527       -970.18667867880072        0.0000000000000000     
   12287.274209055249       -963.58706434487090        0.0000000000000000     
   12295.706659914207       -712.07052714499480        0.0000000000000000     
   15764.194564808948       -910.19187397296366        0.0000000000000000     
   16019.105340519023       -900.11911127958035        0.0000000000000000     
   16305.130683301986       -821.62143969528302        0.0000000000000000     
   16499.907228902324       -787.22208435529069        0.0000000000000000     
   16253.393261601139       -611.16055691870224        0.0000000000000000     
   12402.618181985143       -407.00494056994785        0.0000000000000000     
   12689.226059648290       -421.46341105291913        0.0000000000000000     
   12429.836989962580       -171.76262118581755        0.0000000000000000     
   12927.330598309511       -372.32232925844329        0.0000000000000000     
   12950.364016832171       -107.14215844731923        0.0000000000000000     
   15745.147556498159       -333.38236306212644        0.0000000000000000     
   15964.273317972018       -354.96490709956703        0.0000000000000000     
   15738.805139717784       -77.648252640893460        0.0000000000000000     
   16239.567855907277       -357.59733768071180        0.0000000000000000     
   16479.817143518449       -362.69741846368976        0.0000000000000000     
   16233.657462350257       -57.158730293032143        0.0000000000000000     
   16757.708689043433       -327.35595124695567        0.0000000000000000     
   16653.784113296846       -112.72360440622377        0.0000000000000000     
   16703.720423523169       -469.69911243211567        0.0000000000000000     
   16771.067484663556       -417.33665333644285        0.0000000000000000     
   16646.687432048944       -354.32855445580225        0.0000000000000000     
   16637.909620963470       -249.36427261870062        0.0000000000000000     
   16717.556638253991       -206.22322409944994        0.0000000000000000     
   11308.636591284039        472.95731894945169        0.0000000000000000     
   11249.790472579683        348.24113491086615        0.0000000000000000     
   11345.590304553640        344.57218264944265        0.0000000000000000     
   11213.173647144877        390.40864802759586        0.0000000000000000     
   11450.392305170424        324.11695824096643        0.0000000000000000     
   11998.090907562420        238.69391118904886        0.0000000000000000     
   12121.196890983929        230.09005873105639        0.0000000000000000     
   11879.719162150908        394.16036958259008        0.0000000000000000     
   12380.848944159097        137.88309476003468        0.0000000000000000     
   12731.548683212945        171.09551415267273        0.0000000000000000     
   12398.331259452531        511.74754389489703        0.0000000000000000     
   12421.030379471676       -8.7076529795269728        0.0000000000000000     
   12253.895077465007        192.85654880137642        0.0000000000000000     
   12526.959098840000        37.213278713786451        0.0000000000000000     
   12539.038348408307        168.80343793268230        0.0000000000000000     
   12275.171982610213        306.12559176127576        0.0000000000000000     
   12397.870543235960        315.72264666022556        0.0000000000000000     
   12526.785265039982        304.96789552900350        0.0000000000000000     
   12926.933049625333        138.99489524832293        0.0000000000000000     
   15833.378974253214        231.26042246805324        0.0000000000000000     
   16015.993762698916        155.00286715113563        0.0000000000000000     
   16139.088021435180        128.00352814742573        0.0000000000000000     
   11344.879492641840        681.82769797612525        0.0000000000000000     
   11573.801665788835        700.55030172973784        0.0000000000000000     
   11347.031969924088        842.08639599560183        0.0000000000000000     
   11853.331455744523        718.41938570987600        0.0000000000000000     
   12149.615889340439        727.72465556355280        0.0000000000000000     
   11835.373106438921        1024.7955266876331        0.0000000000000000     
   12370.125394384908        706.24236061206580        0.0000000000000000     
   15836.770135351984        748.15297016638317        0.0000000000000000     
   15983.974785021202        797.35656090562043        0.0000000000000000     
   15743.694727036378        993.79642864762161        0.0000000000000000     
   16328.863113826725        1034.4807388751735        0.0000000000000000     
   16856.040939280014        1134.1188787038932        0.0000000000000000     
   11590.148484122668        1258.6228903359527        0.0000000000000000     
   11807.308527986474        1252.7257674693576        0.0000000000000000     
   15750.775442821159        1236.1837574731860        0.0000000000000000     
   16004.881613042015        1264.5930264813642        0.0000000000000000     
   16251.909672631589        1250.4312989826271        0.0000000000000000     
   16820.375033829492        1316.8693167189392        0.0000000000000000     
   17014.239657106704        1385.0429303536253        0.0000000000000000     
   8560.6792829563874        1818.4629887963408        0.0000000000000000     
   8833.1708418676881        1834.2550939575233        0.0000000000000000     
   8565.2573353641510        2049.6276633269322        0.0000000000000000     
   8479.3226557386442        1689.4474188407801        0.0000000000000000     
   8588.0078291976788        1691.8441585738062        0.0000000000000000     
   8435.0866572795258        1786.8522680941567        0.0000000000000000     
   8722.2372818161693        1697.8443649985022        0.0000000000000000     
   8861.6286263485144        1705.4156621953089        0.0000000000000000     
   8693.9887670934040        1829.8394053922641        0.0000000000000000     
   8418.3841508656296        1895.1724328919045        0.0000000000000000     
   8526.1354982820285        1955.7691903746606        0.0000000000000000     
   8676.7837203228155        1957.2721726372972        0.0000000000000000     
   8815.7989853805429        1965.5641379558072        0.0000000000000000     
   8653.6578123355375        2065.0192785282511        0.0000000000000000     
   9106.9828645067137        1839.9767266603453        0.0000000000000000     
   9357.5465830645280        1862.5466242342845        0.0000000000000000     
   9108.7684422495076        2084.8702739503547        0.0000000000000000     
   8999.8425140012514        1715.5799712468922        0.0000000000000000     
   9134.8496653855636        1727.6032288960209        0.0000000000000000     
   8972.2937552353360        1837.5007485645326        0.0000000000000000     
   9265.3581019491885        1741.0144947543599        0.0000000000000000     
   9386.7717485141366        1751.7676387856525        0.0000000000000000     
   9231.9739439326058        1849.1218604086173        0.0000000000000000     
   8959.8227633514143        1966.8633702386014        0.0000000000000000     
   9100.9737633135901        1957.6362360032458        0.0000000000000000     
   8956.6685510408661        2098.0368989525332        0.0000000000000000     
   9205.1925982848625        1940.4236278300036        0.0000000000000000     
   9635.9803655254691        1901.3578144795101        0.0000000000000000     
   9636.1006018194494        2205.1344393580921        0.0000000000000000     
   9473.2344953933698        1750.6743705494082        0.0000000000000000     
   9515.5131737816901        1850.3795533239590        0.0000000000000000     
   9477.9531412505057        2029.2567954363974        0.0000000000000000     
   9633.5633905344603        2032.9648706587102        0.0000000000000000     
   11657.997029400656        1779.0484444261210        0.0000000000000000     
   11835.422298682062        1836.5706271009371        0.0000000000000000     
   11852.457787870728        2078.9844052264798        0.0000000000000000     
   7106.8279442481744        2583.6771206014782        0.0000000000000000     
   7174.8472091837029        2586.8345161114926        0.0000000000000000     
   7094.7252608410990        2650.8088189837822        0.0000000000000000     
   7085.7976835353375        2548.9380619388503        0.0000000000000000     
   7114.2897115826763        2552.1236684123442        0.0000000000000000     
   7072.6606227753573        2573.9711664205447        0.0000000000000000     
   7147.3905125749525        2555.7675788159163        0.0000000000000000     
   7179.2463523119741        2558.4058712217006        0.0000000000000000     
   7140.4034096279365        2586.6704022854042        0.0000000000000000     
   7069.1649743476828        2611.1378634620246        0.0000000000000000     
   7102.2874735195755        2616.3203200458456        0.0000000000000000     
   7071.6565165761540        2637.1581359464826        0.0000000000000000     
   7136.5977828207942        2619.5823293902699        0.0000000000000000     
   7172.7110713417223        2620.0589534372157        0.0000000000000000     
   7133.9933223059079        2653.4185118391156        0.0000000000000000     
   7434.8622611982209        2682.4958417381126        0.0000000000000000     
   7315.8979843765492        2649.5161213087504        0.0000000000000000     
   7253.6636782331534        2591.2869393116948        0.0000000000000000     
   7309.1990351112127        2609.3025883645341        0.0000000000000000     
   7249.8080296591825        2660.8466241797291        0.0000000000000000     
   7201.9211393244914        2558.6941436035445        0.0000000000000000     
   7215.5394435182916        2581.0723685536550        0.0000000000000000     
   7284.8211465266004        2601.0586098110766        0.0000000000000000     
   7210.3388983068626        2620.6216470182753        0.0000000000000000     
   7249.0305178919380        2621.9429074577893        0.0000000000000000     
   7207.1260008351301        2657.2762815949486        0.0000000000000000     
   7277.1473465965337        2620.9203201597579        0.0000000000000000     
   7390.3724748071108        2675.0212866231104        0.0000000000000000     
   8841.7821067825462        2194.0317047282219        0.0000000000000000     
   9107.0964839248882        2371.6924319522377        0.0000000000000000     
   9443.6026409742699        2394.9206390433351        0.0000000000000000     
   9107.5192531475404        2698.6808640286872        0.0000000000000000     
   8945.4160460019648        2232.6545352575140        0.0000000000000000     
   9111.6797137244321        2227.3915887944727        0.0000000000000000     
   8981.1402561158793        2362.6501366535203        0.0000000000000000     
   9280.0979875407120        2215.2266353314103        0.0000000000000000     
   9259.6270546130636        2381.0951128762331        0.0000000000000000     
   8969.4823552365760        2494.2706639631811        0.0000000000000000     
   9105.4697496490371        2516.9450424026186        0.0000000000000000     
   9229.2764306976242        2503.3936181508088        0.0000000000000000     
   9656.4528945180627        2386.2278583896305        0.0000000000000000     
   9730.8592517298257        2620.1675599041159        0.0000000000000000     
   10261.724246692886        2707.6189892422599        0.0000000000000000     
   11184.327843600204        2436.7086655391468        0.0000000000000000     
   10771.466618481409        2662.0638945701680        0.0000000000000000     
   11344.405603987763        2419.5164207926405        0.0000000000000000     
   11589.822161680635        2319.3673129221042        0.0000000000000000     
   11327.338567505400        2648.6459252432128        0.0000000000000000     
   11816.206044170294        2325.7910343987141        0.0000000000000000     
   3869.4287259790453        2718.0125626239801        0.0000000000000000     
   3872.1876195199347        2688.5470420097217        0.0000000000000000     
   3860.1928412142643        2670.4139839083050        0.0000000000000000     
   3875.0245363063354        2674.1034780976611        0.0000000000000000     
   3856.4323711809720        2684.4396291275871        0.0000000000000000     
   3855.2257568112805        2697.7953148782640        0.0000000000000000     
   3866.9653185593920        2705.0100225301903        0.0000000000000000     
   4147.0247541256731        2928.6538289603568        0.0000000000000000     
   3997.8653952566278        2782.4048715399090        0.0000000000000000     
   3938.1733542338984        2728.6723595499370        0.0000000000000000     
   3940.6915245660002        2787.8222649034210        0.0000000000000000     
   3903.4369293721720        2695.8170595740439        0.0000000000000000     
   3904.0273325663611        2724.1709325754587        0.0000000000000000     
   3887.3736651327181        2678.8363217225938        0.0000000000000000     
   3890.9405226702329        2690.3107113900651        0.0000000000000000     
   3887.2778167826068        2706.5471704022493        0.0000000000000000     
   3907.3876677265775        2707.4565246932957        0.0000000000000000     
   3882.4712830254639        2724.1163956360815        0.0000000000000000     
   3920.4757796183112        2712.6315305563517        0.0000000000000000     
   3924.7111345096009        2724.1610735942122        0.0000000000000000     
   3903.5784916732127        2754.8675380022978        0.0000000000000000     
   3939.2112186332952        2758.3899510590495        0.0000000000000000     
   3885.9209122974739        2736.9405298648385        0.0000000000000000     
   3899.5972689063265        2742.2825887677368        0.0000000000000000     
   3921.5527606264122        2741.2898703750056        0.0000000000000000     
   3943.0089790755128        2740.4179439846994        0.0000000000000000     
   3917.5327340428757        2759.6298521423259        0.0000000000000000     
   3921.8765780725812        2771.8922049149110        0.0000000000000000     
   3935.7043820499102        2776.2486069293127        0.0000000000000000     
   3977.2751535730217        2756.8701503025804        0.0000000000000000     
   4010.1976426125429        2764.4939414356877        0.0000000000000000     
   3974.9240753781214        2788.6024014171608        0.0000000000000000     
   3960.5527836936294        2745.6345610311719        0.0000000000000000     
   3971.2563148671261        2747.0663652602343        0.0000000000000000     
   3957.6928805174730        2758.7334435467283        0.0000000000000000     
   3994.7402036755925        2761.3788865021284        0.0000000000000000     
   3956.6326553579242        2774.4441614784737        0.0000000000000000     
   3975.1876122879671        2773.4073715900777        0.0000000000000000     
   3954.4481669825200        2791.2990823768873        0.0000000000000000     
   3989.0170669373420        2771.9128282129059        0.0000000000000000     
   4081.1131929849748        2797.9262647001160        0.0000000000000000     
   4038.9193721636611        2763.5936623677840        0.0000000000000000     
   4046.1161947345186        2801.4775406324516        0.0000000000000000     