 VARIABLES = "X", "Y", "Z", "Material ID"
 ZONE F=FEPOINT, ET=QUADRILATERAL, N=         793 E=         672
 -0.74739012441202346      -0.87975873866412169        0.0000000000000000                1
 -0.67746227154953309      -0.87923038303531609        0.0000000000000000                1
 -0.58243846688335799      -0.88361064343810991        0.0000000000000000                1
 -0.48294541528640905      -0.88878468721113679        0.0000000000000000                1
 -0.38261971151725871      -0.89305824394938715        0.0000000000000000                1
 -0.28199176889219613      -0.89625921581939372        0.0000000000000000                1
 -0.18119908424750819      -0.89838980469829011        0.0000000000000000                1
  -8.0247758258970847E-002 -0.89945227428671559        0.0000000000000000                1
   2.0825620815347470E-002 -0.89942464898644281        0.0000000000000000                1
  0.12194191203463912      -0.89819405852707301        0.0000000000000000                1
  0.22312452767235150      -0.89573075989547279        0.0000000000000000                1
  0.32405908843750031      -0.89240616636945058        0.0000000000000000                1
  0.42420190558423221      -0.88846926759936140        0.0000000000000000                1
  0.52338015810832927      -0.88341514839602042        0.0000000000000000                1
  0.62085306571270360      -0.87710130699922817        0.0000000000000000                1
  0.71267686374570671      -0.87192538043987666        0.0000000000000000                1
  0.77853749099213643      -0.87268437867855675        0.0000000000000000                1
  -1.0535757309912808      -0.78838844205021974        0.0000000000000000                1
 -0.98531549680344754      -0.79076853464379437        0.0000000000000000                1
 -0.89722872595754632      -0.79990525421574898        0.0000000000000000                1
 -0.79451288782121310      -0.81915158180049408        0.0000000000000000                1
 -0.69386321160673026      -0.79831784738896339        0.0000000000000000                1
 -0.59568571082742661      -0.79636342386967296        0.0000000000000000                1
 -0.49592373955670216      -0.79725774133873839        0.0000000000000000                1
 -0.39585173554910824      -0.79827488460661189        0.0000000000000000                1
 -0.29570453810919756      -0.79904353911046511        0.0000000000000000                1
 -0.19551521170731603      -0.79955179232502849        0.0000000000000000                1
  -9.5288615489334094E-002 -0.79980103602188746        0.0000000000000000                1
   5.0082417548072125E-003 -0.79973540974520485        0.0000000000000000                1
  0.10569975807004509      -0.79896192210437555        0.0000000000000000                1
  0.20800290973675023      -0.79639689948645043        0.0000000000000000                1
  0.31061367867969186      -0.79472492648972570        0.0000000000000000                1
  0.40969412321176674      -0.79686275145020657        0.0000000000000000                1
  0.50547214060747603      -0.79808751585568893        0.0000000000000000                1
  0.60084071682421747      -0.79453228464564374        0.0000000000000000                1
  0.69919243487503047      -0.79291783398822868        0.0000000000000000                1
  0.81611555576113204      -0.81169837611711904        0.0000000000000000                1
  0.92698209504101603      -0.79210571736175051        0.0000000000000000                1
   1.0189133860266422      -0.78185708011182109        0.0000000000000000                1
   1.0846189903183230      -0.77933697025859860        0.0000000000000000                1
  -1.3677338442151048      -0.67499557629664464        0.0000000000000000                1
  -1.3032133853751202      -0.68135795179524550        0.0000000000000000                1
  -1.2124576332914856      -0.69484022084921859        0.0000000000000000                1
  -1.1023831837214222      -0.71897190726208149        0.0000000000000000                1
 -0.99701853121977679      -0.69699079572626066        0.0000000000000000                1
 -0.90039966556741857      -0.69748117267016385        0.0000000000000000                1
 -0.80116918359692435      -0.70124029067440408        0.0000000000000000                1
 -0.70052897442010287      -0.70112142300511748        0.0000000000000000                1
 -0.59996285988094489      -0.69947890699442783        0.0000000000000000                1
 -0.49963816409262890      -0.69949130600223430        0.0000000000000000                1
 -0.39949508529448963      -0.69972646961822937        0.0000000000000000                1
 -0.29944409742930417      -0.69985961318388901        0.0000000000000000                1
 -0.19941279734069511      -0.69993274512563930        0.0000000000000000                1
  -9.9378105979664247E-002 -0.69996151513437443        0.0000000000000000                1
   7.2566199635456911E-004 -0.69987308651392610        0.0000000000000000                1
  0.10133563043144331      -0.69903842904161118        0.0000000000000000                1
  0.20425790649727393      -0.69475211830580275        0.0000000000000000                1
  0.32206116961342829      -0.67840003938729387        0.0000000000000000                1
  0.41712453085516982      -0.70728377345036419        0.0000000000000000                1
  0.50071714090751840      -0.71407547267114069        0.0000000000000000                1
  0.58444957991312740      -0.70727865870314077        0.0000000000000000                1
  0.68072148168828361      -0.67970377611567234        0.0000000000000000                1
  0.80164113386431157      -0.69733162050455388        0.0000000000000000                1
  0.90590951512751372      -0.69915985492072474        0.0000000000000000                1
   1.0061825843236403      -0.69911754131955151        0.0000000000000000                1
   1.1225926112003675      -0.71599840167557205        0.0000000000000000                1
   1.2304337716078271      -0.69030655796394169        0.0000000000000000                1
   1.3197802541861128      -0.67489638752192427        0.0000000000000000                1
   1.3835273328946718      -0.66777698568674537        0.0000000000000000                1
  -1.4804456681731279      -0.59379482277417173        0.0000000000000000                1
  -1.4030963250199968      -0.61147246478579131        0.0000000000000000                1
  -1.2986540725701032      -0.59740621082167866        0.0000000000000000                1
  -1.2029299128991056      -0.60015364028256468        0.0000000000000000                1
  -1.1017837730310038      -0.58390268554383362        0.0000000000000000                1
  -1.0007973102183134      -0.59448714937461888        0.0000000000000000                1
 -0.90041253303230773      -0.58130411404918803        0.0000000000000000                1
 -0.80036040008036458      -0.59986458911566076        0.0000000000000000                1
 -0.70246109585556493      -0.59900876055867669        0.0000000000000000                1
 -0.60153795014085298      -0.59846758613992956        0.0000000000000000                1
 -0.50053492458466009      -0.59939836136137081        0.0000000000000000                1
 -0.40014577521673722      -0.59980043727713506        0.0000000000000000                1
 -0.30000220192122129      -0.59994913417375129        0.0000000000000000                1
 -0.19996543873556688      -0.59998764053531817        0.0000000000000000                1
  -9.9952283497560648E-002 -0.59999253051617718        0.0000000000000000                1
   1.0490468040098285E-004 -0.59992868254852239        0.0000000000000000                1
  0.10037642639170662      -0.59931644474441492        0.0000000000000000                1
  0.20045423108205609      -0.59586577055479295        0.0000000000000000                1
  0.29238966453941795      -0.58358755987895461        0.0000000000000000                1
  0.70816325361971888      -0.58394276889619134        0.0000000000000000                1
  0.80058014241801856      -0.59634400277964228        0.0000000000000000                1
  0.90101493592609749      -0.59975241674961632        0.0000000000000000                1
   1.0028669734133204      -0.60165646950094609        0.0000000000000000                1
   1.1058871639554109      -0.60246842951916879        0.0000000000000000                1
   1.2070980461760683      -0.59926884514183187        0.0000000000000000                1
   1.3058697639387238      -0.59645918832852418        0.0000000000000000                1
   1.4171492091246991      -0.60585536230297676        0.0000000000000000                1
   1.4958884549686184      -0.58536589233281622        0.0000000000000000                1
  -1.6761990521365209      -0.47598832813743602        0.0000000000000000                1
  -1.6143951287841087      -0.48997871092460754        0.0000000000000000                1
  -1.5149628800528396      -0.52141791180120867        0.0000000000000000                1
  -1.4018125657000216      -0.50377903523109957        0.0000000000000000                1
  -1.2956094619874057      -0.49370669175516352        0.0000000000000000                1
  -1.1985189990993903      -0.51950351700742781        0.0000000000000000                1
  -1.1373374125611473      -0.52419516894975615        0.0000000000000000                1
 -0.86323978735764140      -0.52371974628355089        0.0000000000000000                1
 -0.80221480235421327      -0.51904005597385716        0.0000000000000000                1
 -0.70565081053688727      -0.49210829772766346        0.0000000000000000                1
 -0.60115438327068926      -0.49836597879345007        0.0000000000000000                1
 -0.50139928246115306      -0.49860902304712945        0.0000000000000000                1
 -0.40059637577408336      -0.49943969401276533        0.0000000000000000                1
 -0.30017615064404185      -0.49983153584179407        0.0000000000000000                1
 -0.20002539933858068      -0.49997298390988199        0.0000000000000000                1
  -9.9996705926989587E-002 -0.49999738425468981        0.0000000000000000                1
   4.3943183551948254E-005 -0.49999969365823255        0.0000000000000000                1
  0.10006539124655132      -0.49999977548526997        0.0000000000000000                1
  0.19794238591058780      -0.49999967458224398        0.0000000000000000                1
  0.28542426222212891      -0.49999971986303626        0.0000000000000000                1
  0.71479177695534102      -0.49982931097639405        0.0000000000000000                1
  0.80254009120991854      -0.49946373897894136        0.0000000000000000                1
  0.90056723159616892      -0.49917426722520220        0.0000000000000000                1
   1.0005714889205615      -0.49927358996341015        0.0000000000000000                1
   1.1006524281678061      -0.49952132145096295        0.0000000000000000                1
   1.2009760036981993      -0.49975548239726558        0.0000000000000000                1
   1.3026666520965497      -0.50098316503245210        0.0000000000000000                1
   1.4066163927067377      -0.50316281541551389        0.0000000000000000                1
   1.5283906669220246      -0.51437437173463119        0.0000000000000000                1
   1.6283084088635009      -0.48028382844968087        0.0000000000000000                1
   1.6899563249218350      -0.46455229625873506        0.0000000000000000                1
  -1.7796581018296929      -0.37773694570299776        0.0000000000000000                1
  -1.7072146999452686      -0.40607464243954672        0.0000000000000000                1
  -1.6019576812315701      -0.39964768187411365        0.0000000000000000                1
  -1.5027426254787732      -0.40262030888959444        0.0000000000000000                1
  -1.3999705088594332      -0.40049133573404772        0.0000000000000000                1
  -1.3292949912411709      -0.42619861911692480        0.0000000000000000                1
 -0.67133343462355854      -0.42541036294857987        0.0000000000000000                1
 -0.60202426720416302      -0.39797935916248672        0.0000000000000000                1
 -0.50166031486099705      -0.39886447637164407        0.0000000000000000                1
 -0.40166993915926080      -0.39851343016143742        0.0000000000000000                1
 -0.30042086741841034      -0.39957264272197812        0.0000000000000000                1
 -0.20007278171099338      -0.39993026013650845        0.0000000000000000                1
 -0.10000492098509209      -0.39999509976676417        0.0000000000000000                1
   5.8449685081418321E-005 -0.40006744832839541        0.0000000000000000                1
  0.10032865464526156      -0.40067808240395003        0.0000000000000000                1
  0.20040538494953800      -0.40412438925210614        0.0000000000000000                1
  0.29235305600321032      -0.41640228960683390        0.0000000000000000                1
  0.70820224891761174      -0.41565521195190602        0.0000000000000000                1
  0.80101169554803098      -0.40116245673332773        0.0000000000000000                1
  0.90135294805734600      -0.39550269903995960        0.0000000000000000                1
   1.0000146848922229      -0.39442327294787333        0.0000000000000000                1
   1.0984707806830107      -0.39488656297315405        0.0000000000000000                1
   1.1988607899391741      -0.39721000013460084        0.0000000000000000                1
   1.3003099274136931      -0.39986572992123603        0.0000000000000000                1
   1.4031866898114347      -0.40197430767923242        0.0000000000000000                1
   1.5068140739865277      -0.40197949265895166        0.0000000000000000                1
   1.6077034381948307      -0.39771381906625952        0.0000000000000000                1
   1.7184000951715797      -0.39578546589505514        0.0000000000000000                1
   1.7912850252761792      -0.36448740052370532        0.0000000000000000                1
  -1.8713433272017250      -0.26815146237476972        0.0000000000000000                1
  -1.8049635275281246      -0.30314754250333165        0.0000000000000000                1
  -1.7010989912112695      -0.30076748041468487        0.0000000000000000                1
  -1.6003984189560381      -0.29938761202312647        0.0000000000000000                1
  -1.4929571696175663      -0.29519117021177982        0.0000000000000000                1
  -1.4259446776172113      -0.32921895941828638        0.0000000000000000                1
 -0.57459224460995173      -0.32866878800896376        0.0000000000000000                1
 -0.50794908532886207      -0.29438966908113434        0.0000000000000000                1
 -0.40146697506604034      -0.29775754392569553        0.0000000000000000                1
 -0.30076067768825415      -0.29931485059033780        0.0000000000000000                1
 -0.20022606490968159      -0.29982631435910451        0.0000000000000000                1
 -0.10002439169534713      -0.29997337031909688        0.0000000000000000                1
   7.6338159031424002E-005 -0.30008356521552881        0.0000000000000000                1
  0.10065752075472514      -0.30088791310008928        0.0000000000000000                1
  0.20355590860717029      -0.30511067104791822        0.0000000000000000                1
  0.32138005313452195      -0.32137561010021892        0.0000000000000000                1
  0.41643257054888250      -0.29232879973876641        0.0000000000000000                1
  0.50021998557246106      -0.28526733625649153        0.0000000000000000                1
  0.58434844018722376      -0.29180182823098905        0.0000000000000000                1
  0.68030554606558025      -0.31969486469057545        0.0000000000000000                1
  0.79827207349531726      -0.30038371265848623        0.0000000000000000                1
  0.90421937727316259      -0.27726166113132444        0.0000000000000000                1
  0.99994766608705887      -0.29072577663966143        0.0000000000000000                1
   1.0952072124329562      -0.27646562382773848        0.0000000000000000                1
   1.1982276563529817      -0.29531835628219721        0.0000000000000000                1
   1.2982821190059830      -0.29823701191704710        0.0000000000000000                1
   1.3999024629114432      -0.29986343980658692        0.0000000000000000                1
   1.5011467561493201      -0.30044444230607448        0.0000000000000000                1
   1.6029425201768608      -0.30053803569412962        0.0000000000000000                1
   1.7047688385680699      -0.29804011145190956        0.0000000000000000                1
   1.8141069942116981      -0.29071307949858322        0.0000000000000000                1
   1.8811152780081790      -0.25066302901194615        0.0000000000000000                1
  -1.8795863103703068      -0.20157428635190433        0.0000000000000000                1
  -1.7962709997338735      -0.19944840689443427        0.0000000000000000                1
  -1.6984893271726187      -0.20008374960620906        0.0000000000000000                1
  -1.5997188143475689      -0.20050152257533513        0.0000000000000000                1
  -1.5191532616421211      -0.19803994229769997        0.0000000000000000                1
 -0.48104690438120723      -0.19784476871624274        0.0000000000000000                1
 -0.40083207751833833      -0.19995040036022801        0.0000000000000000                1
 -0.30241707559261283      -0.19898662302155454        0.0000000000000000                1
 -0.20053110572044130      -0.19960597766699140        0.0000000000000000                1
 -0.10002736087553303      -0.19984393467560962        0.0000000000000000                1
   5.8772438703317711E-005 -0.19993330746036780        0.0000000000000000                1
  0.10049141254862405      -0.20047386225095054        0.0000000000000000                1
  0.20260238611565148      -0.20257383494017983        0.0000000000000000                1
  0.30509504442494079      -0.20352268838296689        0.0000000000000000                1
  0.40419077897425626      -0.20034823843046687        0.0000000000000000                1
  0.50062003895535634      -0.19757188526810313        0.0000000000000000                1
  0.59884719935268926      -0.19899910247707286        0.0000000000000000                1
  0.69961697144000101      -0.20172864773368829        0.0000000000000000                1
  0.80544278635951927      -0.19455726484523500        0.0000000000000000                1
  0.87356121080380744      -0.21453799791477171        0.0000000000000000                1
   1.1259153019694683      -0.21395375248477119        0.0000000000000000                1
   1.1922640019428354      -0.19226331203331840        0.0000000000000000                1
   1.2953068320271819      -0.19820406569071222        0.0000000000000000                1
   1.3971124611862415      -0.19865547953388402        0.0000000000000000                1
   1.4996501472499830      -0.19980243180146989        0.0000000000000000                1
   1.6006863348314102      -0.20026501390356660        0.0000000000000000                1
   1.7017759932080232      -0.19985204699574019        0.0000000000000000                1
   1.7992226530695059      -0.19560657403993520        0.0000000000000000                1
   1.8863208719277584      -0.18763836013456203        0.0000000000000000                1
  -1.8908128282540555      -0.10517438911044751        0.0000000000000000                1
  -1.7966402296827111      -0.10050240340333048        0.0000000000000000                1
  -1.6953942677948950       -9.9268017560592059E-002   0.0000000000000000                1
  -1.5806794658915331       -9.9944701529681976E-002   0.0000000000000000                1
  -1.5236815784252407      -0.13685156179308716        0.0000000000000000                1
 -0.47635529143714561      -0.13680952108439198        0.0000000000000000                1
 -0.41936061100015171       -9.9749830039262438E-002   0.0000000000000000                1
 -0.30431264654345008       -9.8775916098511191E-002   0.0000000000000000                1
 -0.20059739079071487       -9.9087369911353404E-002   0.0000000000000000                1
  -9.9771567541763001E-002  -9.8987570544704778E-002   0.0000000000000000                1
   2.1875974141881242E-005  -9.8902961566582223E-002   0.0000000000000000                1
   9.9856807032206854E-002  -9.9223344669941524E-002   0.0000000000000000                1
  0.20023705599740355       -9.9933620055917244E-002   0.0000000000000000                1
  0.30071009845449637      -0.10041161007226097        0.0000000000000000                1
  0.40071544584859264      -0.10020338979684511        0.0000000000000000                1
  0.50099586937947682       -9.9658842410787041E-002   0.0000000000000000                1
  0.60451941649237828       -9.8672760659130623E-002   0.0000000000000000                1
  0.72273974623199910       -9.5782186408139333E-002   0.0000000000000000                1
  0.78546203439175044      -0.12643882291322239        0.0000000000000000                1
   1.2139532127449812      -0.12591475876944622        0.0000000000000000                1
   1.2764543529931063       -9.5200687818005211E-002   0.0000000000000000                1
   1.3948096883345316       -9.8363033544212150E-002   0.0000000000000000                1
   1.4990200390848920       -9.9658162448823459E-002   0.0000000000000000                1
   1.6000380509024938      -0.10004205019466461        0.0000000000000000                1
   1.7000606873038349       -9.9941186659207495E-002   0.0000000000000000                1
   1.7983494117281300       -9.9192459686229376E-002   0.0000000000000000                1
   1.8932985874499693       -9.9606102962188678E-002   0.0000000000000000                1
  -1.8955312183629651        3.0444939104479208E-017   0.0000000000000000                1
  -1.7972966072667949       -1.3619205589676668E-017   0.0000000000000000                1
  -1.6946839457508558       -4.3884709234609519E-017   0.0000000000000000                1
  -1.5920326422833022       -7.1912148544989178E-017   0.0000000000000000                1
 -0.40745365984438531        4.7469235072605825E-004   0.0000000000000000                1
 -0.30413121729237613        9.5226895159334030E-004   0.0000000000000000                1
 -0.19974095454359178        2.6884978428172923E-003   0.0000000000000000                1
  -9.8828077869125841E-002   4.7294999682824671E-003   0.0000000000000000                1
  -1.4684068310235726E-006   5.2818210153507310E-003   0.0000000000000000                1
   9.8727061224004917E-002   4.7004947523252415E-003   0.0000000000000000                1
  0.19871047588593296        2.6248285566267252E-003   0.0000000000000000                1
  0.29913054853775678        8.8610361823725746E-004   0.0000000000000000                1
  0.39963274557093387        4.6512224618745432E-004   0.0000000000000000                1
  0.50099124090676184        1.4824130304566047E-004   0.0000000000000000                1
  0.60560553628927072       -2.6479842371632936E-005   0.0000000000000000                1
  0.70927587961007865       -5.4576044248624269E-005   0.0000000000000000                1
   1.2906503976669772        7.9629414747158178E-009   0.0000000000000000                1
   1.3943010802730191        7.9860894744469780E-008   0.0000000000000000                1
   1.4988304274641306        9.5470145908352829E-007   0.0000000000000000                1
   1.5998809795820872        9.3109035018477300E-006   0.0000000000000000                1
   1.6998039146292496        8.1544914059598889E-005   0.0000000000000000                1
   1.7985750013011814        4.2000290219574123E-004   0.0000000000000000                1
   1.8959244238064652        6.2827033833041490E-004   0.0000000000000000                1
  -1.8908128282540555       0.10517438911044746        0.0000000000000000                1
  -1.7966402296827113       0.10050240340333035        0.0000000000000000                1
  -1.6953942677949108        9.9268017560586994E-002   0.0000000000000000                1
  -1.5806794658915937        9.9944701529662491E-002   0.0000000000000000                1
  -1.5236815784253162       0.13685156179306296        0.0000000000000000                1
 -0.47584628660036588       0.13737823876336358        0.0000000000000000                1
 -0.41732748929872665       0.10192161374311623        0.0000000000000000                1
 -0.29998481754886230       0.10216823261468876        0.0000000000000000                1
 -0.19853404723551327       0.10215666645356131        0.0000000000000000                1
  -9.7579676653263489E-002  0.12078977524041100        0.0000000000000000                1
  -5.4348302275568679E-006  0.10852085799511725        0.0000000000000000                1
   9.7474429154920161E-002  0.12082386680659084        0.0000000000000000                1
  0.19760097481643044       0.10245603349001117        0.0000000000000000                1
  0.29549368783510727       0.10314553182485987        0.0000000000000000                1
  0.39769346954801149       0.10238193093926186        0.0000000000000000                1
  0.50050224030792700       0.10019392380057024        0.0000000000000000                1
  0.60511598583495929        9.8432003595450360E-002   0.0000000000000000                1
  0.72353497571107706        9.5203840355486694E-002   0.0000000000000000                1
  0.78604668600537397       0.12591468180451976        0.0000000000000000                1
   1.2139531668206733       0.12591478981245330        0.0000000000000000                1
   1.2764541565918450        9.5200834029595935E-002   0.0000000000000000                1
   1.3948087065203809        9.8363947732679313E-002   0.0000000000000000                1
   1.4990145407124298        9.9664736981127822E-002   0.0000000000000000                1
   1.6000037012573809       0.10009466248620209        0.0000000000000000                1
   1.6998977041366172       0.10026084224473175        0.0000000000000000                1
   1.7976089953479262       0.10086050350907316        0.0000000000000000                1
   1.8909479467116446       0.10526457743985655        0.0000000000000000                1
  -1.8795863103703070       0.20157428635190411        0.0000000000000000                1
  -1.7962709997338748       0.19944840689443377        0.0000000000000000                1
  -1.6984893271727990       0.20008374960615130        0.0000000000000000                1
  -1.5997188143547212       0.20050152257305007        0.0000000000000000                1
  -1.5191532616558898       0.19803994229330130        0.0000000000000000                1
 -0.48014698132776773       0.19876679517681334        0.0000000000000000                1
 -0.39769907012425498       0.20446503155308221        0.0000000000000000                1
 -0.28365562407330319       0.21766996253238141        0.0000000000000000                1
 -0.18935871694776971       0.18677984121162258        0.0000000000000000                1
 -0.13179180503704585       0.17986707386111742        0.0000000000000000                1
  0.13172489476330518       0.17990565385326016        0.0000000000000000                1
  0.18884318424328514       0.18704684901568547        0.0000000000000000                1
  0.28155082704162426       0.21845113678439701        0.0000000000000000                1
  0.39692228809717894       0.20447243045224489        0.0000000000000000                1
  0.49965938105293073       0.20060472712760041        0.0000000000000000                1
  0.60273588888518204       0.19877791739572848        0.0000000000000000                1
  0.70469392497076588       0.19820117145188454        0.0000000000000000                1
  0.80774175020322525       0.19225771316644547        0.0000000000000000                1
  0.87408591250851697       0.21395255020414092        0.0000000000000000                1
   1.1259152790021962       0.21395373721684699        0.0000000000000000                1
   1.1922632613663871       0.19226377960956312        0.0000000000000000                1
   1.2953029468683526       0.19820671614621532        0.0000000000000000                1
   1.3970994892944553       0.19866533728320146        0.0000000000000000                1
   1.4996003893823526       0.19984919677516164        0.0000000000000000                1
   1.6004868378183710       0.20049771826030335        0.0000000000000000                1
   1.7009274408355544       0.20106234316856789        0.0000000000000000                1
   1.7968485640895582       0.19977029764839005        0.0000000000000000                1
   1.8796599020227234       0.20162069822327536        0.0000000000000000                1
  -1.8713433272017255       0.26815146237476944        0.0000000000000000                1
  -1.8049635275281293       0.30314754250333009        0.0000000000000000                1
  -1.7010989912122243       0.30076748041437951        0.0000000000000000                1
  -1.6003984190228195       0.29938761200179242        0.0000000000000000                1
  -1.4929571711752923       0.29519116971491977        0.0000000000000000                1