 VARIABLES = "X", "Y", "Z", "Material ID"
 ZONE F=FEPOINT, ET=QUADRILATERAL, N=         256 E=         216
  -2.6873977405837293       -6.8533127622695327        0.0000000000000000                1
  -2.0107216208334830       -6.8653592763868971        0.0000000000000000                1
  -1.0410418717229430       -6.9216393501877436        0.0000000000000000                1
   2.9914317389249452E-007  -6.9498898853200819        0.0000000000000000                1
   1.0410424461507628       -6.9216392766248402        0.0000000000000000                1
   2.0107220327172568       -6.8653591828504128        0.0000000000000000                1
   2.6873981288553859       -6.8533125928811724        0.0000000000000000                1
  -4.7376904454980995       -5.7175213451225044        0.0000000000000000                1
  -4.1206720130528502       -5.8675490522077878        0.0000000000000000                1
  -3.1043042956445248       -6.1731350923322497        0.0000000000000000                1
  -2.0036785626442293       -5.9851228109655406        0.0000000000000000                1
  -1.0098066418464926       -5.9615428122621053        0.0000000000000000                1
   1.4709820053854505E-007  -5.9621383436287827        0.0000000000000000                1
   1.0098069254580606       -5.9615427749228607        0.0000000000000000                1
   2.0036788476940814       -5.9851227245471463        0.0000000000000000                1
   3.1043047248453637       -6.1731348837727875        0.0000000000000000                1
   4.1206723474153728       -5.8675488472011379        0.0000000000000000                1
   4.7376907676029258       -5.7175210618166004        0.0000000000000000                1
  -5.7175290854607779       -4.7380091301910010        0.0000000000000000                1
  -5.0338745166877699       -5.0343954062500895        0.0000000000000000                1
  -4.0192675410948970       -4.9833531598216370        0.0000000000000000                1
  -3.0341474170276692       -5.0182548701078380        0.0000000000000000                1
  -2.0156881211258657       -5.0103777714860014        0.0000000000000000                1
  -1.0040300753747722       -4.9870767872055781        0.0000000000000000                1
   6.0852391295220599E-008  -4.9814748373358562        0.0000000000000000                1
   1.0040302009996218       -4.9870767659830246        0.0000000000000000                1
   2.0156882695001368       -5.0103777181605134        0.0000000000000000                1
   3.0341475987081470       -5.0182547768740768        0.0000000000000000                1
   4.0192677517264235       -4.9833530187782422        0.0000000000000000                1
   5.0338748493687993       -5.0343951166931937        0.0000000000000000                1
   5.7175293209022602       -4.7380089327602013        0.0000000000000000                1
  -5.8675188863064056       -4.1212636296863909        0.0000000000000000                1
  -4.9817761240538099       -4.0207066396640707        0.0000000000000000                1
  -4.0043466716132476       -4.0091310423573745        0.0000000000000000                1
  -2.9990315694177632       -4.0029589564990262        0.0000000000000000                1
  -1.9980410613749504       -4.0034989440703912        0.0000000000000000                1
  -1.0025886914544810       -4.0005457543630971        0.0000000000000000                1
   2.0746475113970737E-008  -3.9975159229059596        0.0000000000000000                1
   1.0025887373323932       -4.0005457437680310        0.0000000000000000                1
   1.9980411190787104       -4.0034989203087994        0.0000000000000000                1
   2.9990316429591277       -4.0029589183853922        0.0000000000000000                1
   4.0043467623169633       -4.0091309944173315        0.0000000000000000                1
   4.9817762016159142       -4.0207066311633861        0.0000000000000000                1
   5.8675188596932371       -4.1212637826229708        0.0000000000000000                1
  -6.8541002111688183       -2.6879947245913107        0.0000000000000000                1
  -6.1729085409881828       -3.1048888913844155        0.0000000000000000                1
  -5.0136659075640297       -3.0350713738960646        0.0000000000000000                1
  -3.9875424262402621       -3.0037083370185038        0.0000000000000000                1
  -2.9583450770060473       -2.9862077152150581        0.0000000000000000                1
  -1.9564448711238327       -3.0074316257272078        0.0000000000000000                1
  -1.0288837123626529       -3.0335503938657875        0.0000000000000000                1
   1.0288837262314781       -3.0335503874658527        0.0000000000000000                1
   1.9564448911242271       -3.0074316139865118        0.0000000000000000                1
   2.9583451007698525       -2.9862077059557937        0.0000000000000000                1
   3.9875424441476084       -3.0037083543421090        0.0000000000000000                1
   5.0136658867393695       -3.0350714841250634        0.0000000000000000                1
   6.1729083839861225       -3.1048892680750777        0.0000000000000000                1
   6.8541000559261871       -2.6879951002733922        0.0000000000000000                1
  -6.8662753709801922       -2.0111701987867616        0.0000000000000000                1
  -5.9840270273315026       -2.0036316982582778        0.0000000000000000                1
  -4.9988021360598456       -2.0128444316642962        0.0000000000000000                1
  -3.9673460790320729       -1.9910456416213260        0.0000000000000000                1
  -2.9250676751279574       -1.9602609213766169        0.0000000000000000                1
  -1.7488220331260382       -1.8941799125227259        0.0000000000000000                1
  -1.0549997787868055       -2.3236466700724256        0.0000000000000000                1
   1.0549997837804572       -2.3236466643587570        0.0000000000000000                1
   1.7488220458128314       -1.8941798934567231        0.0000000000000000                1
   2.9250676824671715       -1.9602609190558851        0.0000000000000000                1
   3.9673460740069904       -1.9910456777822028        0.0000000000000000                1
   4.9988021012560706       -2.0128445618115824        0.0000000000000000                1
   5.9840269533796562       -2.0036319857181191        0.0000000000000000                1
   6.8662752833801406       -2.0111706212098683        0.0000000000000000                1
  -6.9224179711968894       -1.0409114847469898        0.0000000000000000                1
  -5.9580972668346384       -1.0079369394830269        0.0000000000000000                1
  -4.9644031999205085      -0.99567599301028353        0.0000000000000000                1
  -3.9291101003161621      -0.97695020835669544        0.0000000000000000                1
  -2.9054997225222778      -0.96230280748999109        0.0000000000000000                1
  -1.9926400784257610      -0.87289673502188803        0.0000000000000000                1
   1.9926400967129940      -0.87289669880900866        0.0000000000000000                1
   2.9054997268816880      -0.96230280141339608        0.0000000000000000                1
   3.9291100929507503      -0.97695023841944151        0.0000000000000000                1
   4.9644031749179138      -0.99567610279805430        0.0000000000000000                1
   5.9580972161164363       -1.0079372292530011        0.0000000000000000                1
   6.9224178849132079       -1.0409122105773705        0.0000000000000000                1
  -6.9501005397333646        9.2742624259370366E-004   0.0000000000000000                1
  -5.9557814357875589        3.5672791828285644E-003   0.0000000000000000                1
  -4.9483036165862142        1.0995072712916628E-002   0.0000000000000000                1
  -3.8953761385874000        2.9859225313277709E-002   0.0000000000000000                1
  -2.7044268180022062        9.0239571225917720E-002   0.0000000000000000                1
  -2.0577134077941768      -0.24596023237843009        0.0000000000000000                1
   2.0577134210878052      -0.24596020431369345        0.0000000000000000                1
   2.7044268189715441        9.0239580457790514E-002   0.0000000000000000                1
   3.8953761308269974        2.9859213173780558E-002   0.0000000000000000                1
   4.9483035951995147        1.0995006120167076E-002   0.0000000000000000                1
   5.9557813901644838        3.5670820853994137E-003   0.0000000000000000                1
   6.9501004563561564        9.2689435561150025E-004   0.0000000000000000                1
  -6.9211366160086696        1.0424222176432969        0.0000000000000000                1
  -5.9532838484776942        1.0137526163989738        0.0000000000000000                1
  -4.9500311685113738        1.0133010960715971        0.0000000000000000                1
  -3.8931011037157370        1.0206864672017701        0.0000000000000000                1
  -2.8597405927114097        1.0355541279811451        0.0000000000000000                1
   2.8597405855148050        1.0355541561997710        0.0000000000000000                1
   3.8931010938674659        1.0206864792431729        0.0000000000000000                1
   4.9500311437713602        1.0133010952272252        0.0000000000000000                1
   5.9532837990761642        1.0137526003929100        0.0000000000000000                1
   6.9211365315596618        1.0424222862598713        0.0000000000000000                1
  -6.8644255432723220        2.0119396442671045        0.0000000000000000                1
  -5.9770878564770857        2.0066264662415398        0.0000000000000000                1
  -4.9783437062948490        2.0217143918982812        0.0000000000000000                1
  -3.9140404518912146        2.0099176101976779        0.0000000000000000                1
  -2.7410761635755314        1.9789206013273941        0.0000000000000000                1
  -2.1286743374522938        2.2972195370402191        0.0000000000000000                1
   2.1286743610257557        2.2972195426678992        0.0000000000000000                1
   2.7410761638391019        1.9789206359778868        0.0000000000000000                1
   3.9140404460760796        2.0099176374812129        0.0000000000000000                1
   4.9783436737405848        2.0217144567823859        0.0000000000000000                1
   5.9770877867149022        2.0066266051883610        0.0000000000000000                1
   6.8644254594393956        2.0119399050258959        0.0000000000000000                1
  -6.8525413060636966        2.6881963732921870        0.0000000000000000                1
  -6.1678363756747823        3.1055140586749621        0.0000000000000000                1
  -4.9973810792864448        3.0371864629703023        0.0000000000000000                1
  -3.9532479064607431        3.0086876509391756        0.0000000000000000                1
  -2.9421500723748752        3.0044506681060703        0.0000000000000000                1
  -1.9325861810773708        2.9330503835958242        0.0000000000000000                1
  -1.2961124323034472        3.1292858466381226        0.0000000000000000                1
   1.2961125095535806        3.1292858073071477        0.0000000000000000                1
   1.9325862367186535        2.9330503517007323        0.0000000000000000                1
   2.9421501048823493        3.0044506615488613        0.0000000000000000                1
   3.9532479276365446        3.0086876615716580        0.0000000000000000                1
   4.9973810641359959        3.0371865415826567        0.0000000000000000                1
   6.1678362306961594        3.1055143771002238        0.0000000000000000                1
   6.8525411601091921        2.6881966863964970        0.0000000000000000                1
  -5.8641463558607994        4.1208556574546105        0.0000000000000000                1
  -4.9733093718925323        4.0196757173264421        0.0000000000000000                1
  -3.9922265881412806        4.0059453056237606        0.0000000000000000                1
  -2.9890091422252363        3.9843170145084694        0.0000000000000000                1
  -2.0054941764375291        3.9431793687522627        0.0000000000000000                1
 -0.97208389168591847        3.7420513075922179        0.0000000000000000                1
   4.9676272106708220E-008   3.8718978722738666        0.0000000000000000                1
  0.97208398546357100        3.7420512824509333        0.0000000000000000                1
   2.0054942543469476        3.9431793364082637        0.0000000000000000                1
   2.9890092219353614        3.9843169730044243        0.0000000000000000                1
   3.9922266832879627        4.0059452501162101        0.0000000000000000                1
   4.9733094595143266        4.0196756893634538        0.0000000000000000                1
   5.8641463429630756        4.1208557832657018        0.0000000000000000                1
  -5.7158908831846356        4.7374654742093680        0.0000000000000000                1
  -5.0310753814344418        5.0329859200420133        0.0000000000000000                1
  -4.0146693983288912        4.9778067867170384        0.0000000000000000                1
  -3.0301613062086163        5.0005146435834220        0.0000000000000000                1
  -2.0111150485345335        4.9601592448796588        0.0000000000000000                1
 -0.99816482806907292        4.9040223934159526        0.0000000000000000                1
   6.5559167275215029E-008   4.8889229740908711        0.0000000000000000                1
  0.99816495902914204        4.9040223703928012        0.0000000000000000                1
   2.0111151922869741        4.9601591923650652        0.0000000000000000                1
   3.0301614770132304        5.0005145532717288        0.0000000000000000                1
   4.0146696060123634        4.9778066411423172        0.0000000000000000                1
   5.0310757370402959        5.0329856029402960        0.0000000000000000                1
   5.7158911418430645        4.7374652500277525        0.0000000000000000                1
  -4.7366408724331457        5.7163969255377953        0.0000000000000000                1
  -4.1192062592906806        5.8644052326761127        0.0000000000000000                1
  -3.1027380900121511        6.1648179887777204        0.0000000000000000                1
  -2.0015559213129070        5.9647195940348077        0.0000000000000000                1
  -1.0080842121091849        5.9307120578964962        0.0000000000000000                1
   1.2809144579091231E-007   5.9271981412979953        0.0000000000000000                1
   1.0080844592290032        5.9307120244791536        0.0000000000000000                1
   2.0015561708518548        5.9647195166171958        0.0000000000000000                1
   3.1027384683617534        6.1648178022211253        0.0000000000000000                1
   4.1192065691366757        5.8644050357600435        0.0000000000000000                1
   4.7366412086031042        5.7163966234799082        0.0000000000000000                1
  -2.6868851371343672        6.8498717712581927        0.0000000000000000                1
  -2.0100960238839289        6.8591082624958490        0.0000000000000000                1
  -1.0405857107919183        6.9126053965829257        0.0000000000000000                1
   2.5020681072890381E-007   6.9397443383701223        0.0000000000000000                1
   1.0405861922485977        6.9126053343110048        0.0000000000000000                1
   2.0100963728176224        6.8591081816647161        0.0000000000000000                1
   2.6868854733549496        6.8498716232438612        0.0000000000000000                1
  -3.6705104009983383       -7.1082595194719094        0.0000000000000000                1
  -3.0442865551243687       -7.3981294507658495        0.0000000000000000                1
  -2.1863978152204244       -7.6954314104928097        0.0000000000000000                1
  -1.1313695802431922       -7.9195961306685545        0.0000000000000000                1
   3.6410209097182056E-009  -8.0000000000000000        0.0000000000000000                1
   1.1313715929171257       -7.9195958431437754        0.0000000000000000                1
   2.1863978152204155       -7.6954314104928123        0.0000000000000000                1
   3.0442865551243603       -7.3981294507658522        0.0000000000000000                1
   3.6705121720218252       -7.1082586049636394        0.0000000000000000                1
   4.4376011313588206       -6.6564026469980702        0.0000000000000000                1
   5.1002019105058052       -6.1634357684714240        0.0000000000000000                1
   5.6568543182710815       -5.6568541807136778        0.0000000000000000                1
   6.1634357684714258       -5.1002019105058034        0.0000000000000000                1
   6.6564026469980728       -4.4376011313588162        0.0000000000000000                1
   7.1082586387364719       -3.6705121066178656        0.0000000000000000                1
   7.3981294507658539       -3.0442865551243559        0.0000000000000000                1
   7.6954314104928132       -2.1863978152204129        0.0000000000000000                1
   7.9195958648410292       -1.1313714410364422        0.0000000000000000                1
   7.9999999999999973       -1.9089446951922548E-007   0.0000000000000000                1
   7.9195958696254367        1.1313714075456061        0.0000000000000000                1
   7.6954314104928123        2.1863978152204151        0.0000000000000000                1
   7.3981294507658530        3.0442865551243603        0.0000000000000000                1
   7.1082586908781771        3.6705120056410205        0.0000000000000000                1
   6.6564026469980719        4.4376011313588180        0.0000000000000000                1
   6.1634357684714223        5.1002019105058070        0.0000000000000000                1
   5.6568544506792637        5.6568540483054894        0.0000000000000000                1
   5.1002019105058061        6.1634357684714240        0.0000000000000000                1
   4.4376011313588162        6.6564026469980728        0.0000000000000000                1
   3.6705119402370614        7.1082587246510069        0.0000000000000000                1
   3.0442865551243585        7.3981294507658530        0.0000000000000000                1
   2.1863978152204191        7.6954314104928114        0.0000000000000000                1
   1.1313712556649234        7.9195958913226860        0.0000000000000000                1
   0.0000000000000000        8.0000000000000000        0.0000000000000000                1
  -1.1313695802431916        7.9195961306685545        0.0000000000000000                1
  -2.1863978152204133        7.6954314104928132        0.0000000000000000                1
  -3.0442865551243612        7.3981294507658522        0.0000000000000000                1
  -3.6705104009983280        7.1082595194719147        0.0000000000000000                1
  -4.4376011313588100        6.6564026469980773        0.0000000000000000                1
  -5.1002019105058114        6.1634357684714196        0.0000000000000000                1
  -5.6568527973323901        5.6568557016519971        0.0000000000000000                1
  -6.1634357684714214        5.1002019105058087        0.0000000000000000                1
  -6.6564026469980755        4.4376011313588126        0.0000000000000000                1
  -7.1082595194719094        3.6705104009983378        0.0000000000000000                1
  -7.3981294507658477        3.0442865551243714        0.0000000000000000                1
  -7.6954314104928097        2.1863978152204240        0.0000000000000000                1
  -7.9195961306685545        1.1313695802431951        0.0000000000000000                1
  -7.9999999999997362        2.0536640888705361E-006   0.0000000000000000                1
  -7.9195961306685545       -1.1313695802431911        0.0000000000000000                1
  -7.6954314104928114       -2.1863978152204195        0.0000000000000000                1
  -7.3981294507658522       -3.0442865551243607        0.0000000000000000                1
  -7.1082595194719147       -3.6705104009983276        0.0000000000000000                1
  -6.6564026469980773       -4.4376011313588100        0.0000000000000000                1
  -6.1634357684714196       -5.1002019105058114        0.0000000000000000                1
  -5.6568527973323857       -5.6568557016520016        0.0000000000000000                1
  -5.1002019105058114       -6.1634357684714187        0.0000000000000000                1
  -4.4376011313588135       -6.6564026469980755        0.0000000000000000                1
   0.0000000000000000       -3.0000000000000000        0.0000000000000000                1
  0.55937500602804713       -1.8812499879439057        0.0000000000000000                1
  0.84062499397195267       -1.3187500120560947        0.0000000000000000                1
   1.2000000817126981      -0.59999983657460376        0.0000000000000000                1
   1.5593750060280469       0.11875001205609381        0.0000000000000000                1
   1.8406249939719526       0.68124998794390512        0.0000000000000000                1
   2.0000000000000000        1.0000000000000000        0.0000000000000000                1
   1.9234528539428934        1.5480229180052039        0.0000000000000000                1
   1.7577069153495042        1.9541836299856183        0.0000000000000000                1
   1.4142135455002482        2.4142135792459416        0.0000000000000000                1
  0.95418362998561834        2.7577069153495040        0.0000000000000000                1
  0.54802294711610822        2.9234528456487245        0.0000000000000000                1
  -4.5511671064437944E-010   3.0000000000000000        0.0000000000000000                1
 -0.54802270862631064        2.9234529135983243        0.0000000000000000                1
 -0.95418362998561812        2.7577069153495044        0.0000000000000000                1
  -1.4142133808531077        2.4142137438930593        0.0000000000000000                1
  -1.7577069153495022        1.9541836299856215        0.0000000000000000                1
  -1.9234529135983240        1.5480227086263110        0.0000000000000000                1
  -2.0000000000000000        1.0000000000000000        0.0000000000000000                1
  -1.8406249939719528       0.68124998794390557        0.0000000000000000                1
  -1.5593750060280471       0.11875001205609437        0.0000000000000000                1
  -1.2000000031251037      -0.59999999374979263        0.0000000000000000                1
 -0.84062499397195278       -1.3187500120560944        0.0000000000000000                1
 -0.55937500602804713       -1.8812499879439057        0.0000000000000000                1
           1           2          11          10
           2           3          12          11
           3           4          13          12
           4           5          14          13
           5           6          15          14
           6           7          16          15
           8           9          21          20
           9          10          22          21
          10          11          23          22
          11          12          24          23
          12          13          25          24
          13          14          26          25
          14          15          27          26
          15          16          28          27
          16          17          29          28
          17          18          30          29
          19          20          33          32
          20          21          34          33
          21          22          35          34
          22          23          36          35
          23          24          37          36
          24          25          38          37
          25          26          39          38
          26          27          40          39
          27          28          41          40
          28          29          42          41
          29          30          43          42
          30          31          44          43
          32          33          47          46
          33          34          48          47
          34          35          49          48
          35          36          50          49
          36          37          51          50
          39          40          53          52
          40          41          54          53
          41          42          55          54
          42          43          56          55
          43          44          57          56
          45          46          60          59
          46          47          61          60
          47          48          62          61
          48          49          63          62
          49          50          64          63
          50          51          65          64
          52          53          67          66
          53          54          68          67
          54          55          69          68
          55          56          70          69
          56          57          71          70
          57          58          72          71
          59          60          74          73
          60          61          75          74
          61          62          76          75
          62          63          77          76
          63          64          78          77
          67          68          80          79
          68          69          81          80
          69          70          82          81
          70          71          83          82
          71          72          84          83
          73          74          86          85
          74          75          87          86
          75          76          88          87
          76          77          89          88
          77          78          90          89
          79          80          92          91
          80          81          93          92
          81          82          94          93
          82          83          95          94
          83          84          96          95
          85          86          98          97
          86          87          99          98
          87          88         100          99
          88          89         101         100
          92          93         103         102
          93          94         104         103
          94          95         105         104
          95          96         106         105
          97          98         108         107
          98          99         109         108
          99         100         110         109
         100         101         111         110
         102         103         115         114
         103         104         116         115
         104         105         117         116
         105         106         118         117
         107         108         120         119
         108         109         121         120
         109         110         122         121
         110         111         123         122
         111         112         124         123
         113         114         128         127
         114         115         129         128
         115         116         130         129
         116         117         131         130
         117         118         132         131
         120         121         134         133
         121         122         135         134
         122         123         136         135
         123         124         137         136
         124         125         138         137
         126         127         141         140
         127         128         142         141
         128         129         143         142
         129         130         144         143
         130         131         145         144
         133         134         147         146
         134         135         148         147
         135         136         149         148
         136         137         150         149
         137         138         151         150
         138         139         152         151
         139         140         153         152
         140         141         154         153
         141         142         155         154
         142         143         156         155
         143         144         157         156
         144         145         158         157
         147         148         160         159
         148         149         161         160
         149         150         162         161
         150         151         163         162
         151         152         164         163
         152         153         165         164
         153         154         166         165
         154         155         167         166
         155         156         168         167
         156         157         169         168
         161         162         171         170
         162         163         172         171
         163         164         173         172
         164         165         174         173
         165         166         175         174
         166         167         176         175