 VARIABLES = "X", "Y", "Z", "Material ID"
 ZONE F=FEPOINT, ET=QUADRILATERAL, N=        1812 E=        1671
  -17.215733295691599       -2.0767940302199768        0.0000000000000000                1
  -14.041535804430744       -1.9742632778067506        0.0000000000000000                1
  -10.889237941440584       -2.2386237068079735        0.0000000000000000                1
  -8.0697575889155821       -2.2035046771494322        0.0000000000000000                1
  -4.5009070763022239       -2.4859910697191352        0.0000000000000000                1
  -1.9655913023999294       -2.0680153466156157        0.0000000000000000                1
  0.88701815495230885       -1.9833545402482364        0.0000000000000000                1
   3.9075708121092911       -2.2938038494262427        0.0000000000000000                1
   7.0565525219195502       -2.0865511389365730        0.0000000000000000                1
   9.9630683191970153       -2.0404894506899365        0.0000000000000000                1
   12.940032827390871       -2.0604551667392195        0.0000000000000000                1
   16.200113376455715       -1.6897230310144309        0.0000000000000000                1
  -14.047113931278957       0.95422136035726202        0.0000000000000000                1
  -11.290260268939370       0.53058371871995258        0.0000000000000000                1
  -8.1013031038412944       0.92990891687745991        0.0000000000000000                1
  -4.9642332387762345       0.83031958818841045        0.0000000000000000                1
   10.364993656026765       0.74368595590111775        0.0000000000000000                1
   12.465203723250960        1.4911127184765478        0.0000000000000000                1
   15.752414061567364       0.72218729152316263        0.0000000000000000                1
  -13.871592423481726        3.5846967433181574        0.0000000000000000                1
  -11.077786409190185        3.8622803373787136        0.0000000000000000                1
  -7.9646092357958800        3.9788178754258756        0.0000000000000000                1
  -4.7154334106501015        4.0728584961084211        0.0000000000000000                1
   13.080365202116987        4.0576770216589102        0.0000000000000000                1
  -10.774165282803548        6.8507647527194635        0.0000000000000000                1
  -7.9641000668219526        6.9743552040659207        0.0000000000000000                1
  -5.1006384672120424        7.0674397360922416        0.0000000000000000                1
  -2.1480991970235990        6.9756035536495808        0.0000000000000000                1
  0.74631551832194520        7.2628087385162532        0.0000000000000000                1
   3.8364663731656372        7.0606802781958109        0.0000000000000000                1
   6.6090044128436958        7.0596482285049929        0.0000000000000000                1
   10.073691792994584        7.2065587882209909        0.0000000000000000                1
  -8.1622520050532863        9.8665679467724345        0.0000000000000000                1
  -5.0054609568137014        10.001899740686985        0.0000000000000000                1
  -2.0373933141047709        10.025043484250931        0.0000000000000000                1
  0.98740587617651088        9.9863891393782573        0.0000000000000000                1
   3.7305789125062949        10.033882742382309        0.0000000000000000                1
   6.9141489452514593        10.039553756444153        0.0000000000000000                1
   9.8047862046995640        9.9753768805804022        0.0000000000000000                1
  -7.5959914326119931        12.262803230810311        0.0000000000000000                1
  -4.9926354511025730        12.948936394729261        0.0000000000000000                1
  -1.9618756197055747        12.974858980984376        0.0000000000000000                1
   1.0054555741464124        12.998101561267490        0.0000000000000000                1
   3.9959513623219611        13.036868075999445        0.0000000000000000                1
   7.0511709674497220        13.301403380840181        0.0000000000000000                1
  -5.2548111463848199        15.934907955083716        0.0000000000000000                1
  -1.8829886701148144        16.029095916205819        0.0000000000000000                1
   3.9795778268860982        16.027422947512264        0.0000000000000000                1
  -1.9954532090167547        18.933752234585302        0.0000000000000000                1
  0.94152438192343169        18.921497413988394        0.0000000000000000                1
   3.7022102028994865        18.952277556250099        0.0000000000000000                1
  -1.9237577851686620        21.618253071026427        0.0000000000000000                1
   1.0265186089516476        22.244342519755406        0.0000000000000000                1
  -18.016091574484552       -3.4263888438230015        0.0000000000000000                1
  -17.157340361028979       -3.4877579545573840        0.0000000000000000                1
  -18.236795049326414       -4.1844281296851715        0.0000000000000000                1
  -17.188512762211872       -4.2284766858140230        0.0000000000000000                1
  -17.840477485980038       -2.8018208852577633        0.0000000000000000                1
  -17.116486055138243       -2.7956452232661553        0.0000000000000000                1
  -17.768695845329923       -2.3895633776359704        0.0000000000000000                1
  -15.526433602937521       -3.4957865689377030        0.0000000000000000                1
  -13.983119515453671       -3.4798954335875760        0.0000000000000000                1
  -15.534764782471484       -2.0158484360589584        0.0000000000000000                1
  -16.306523061502915       -4.2433462397143238        0.0000000000000000                1
  -15.517025730089451       -4.2461809434721713        0.0000000000000000                1
  -16.323260337436256       -3.4980467611651780        0.0000000000000000                1
  -14.751458018416560       -4.2447739675879683        0.0000000000000000                1
  -13.992776374441465       -4.2439592310808925        0.0000000000000000                1
  -14.753099913554523       -3.4893903237881592        0.0000000000000000                1
  -16.325271678365269       -2.7654599820890935        0.0000000000000000                1
  -15.531071743567544       -2.7514099254047193        0.0000000000000000                1
  -16.317703594862063       -2.0417483697294814        0.0000000000000000                1
  -14.760778844313769       -2.7379974409735595        0.0000000000000000                1
  -13.997137822549298       -2.7145564225081529        0.0000000000000000                1
  -14.774378293334903       -1.9963630734925977        0.0000000000000000                1
  -12.473976967156659       -3.5348395414224871        0.0000000000000000                1
  -11.022396242130146       -3.5149460032977404        0.0000000000000000                1
  -13.238733344751568       -4.2491281387852835        0.0000000000000000                1
  -12.492179785739426       -4.2581752158743500        0.0000000000000000                1
  -13.215710629426823       -3.4930102734906923        0.0000000000000000                1
  -11.750799841939990       -4.2608345374731798        0.0000000000000000                1
  -11.006774864074783       -4.2548744728016850        0.0000000000000000                1
  -11.754356868500135       -3.5449206935345594        0.0000000000000000                1
  -13.150134843622366       -2.6488837899296365        0.0000000000000000                1
  -12.419328544827478       -2.8965618239333972        0.0000000000000000                1
  -13.398789061298402       -1.9189460147396904        0.0000000000000000                1
  -11.781003695362259       -2.9189607636668411        0.0000000000000000                1
  -11.075659878973266       -2.7269846404522666        0.0000000000000000                1
  -9.5118124986841526       -3.4950661952589570        0.0000000000000000                1
  -8.0164277834374928       -3.3843530804671085        0.0000000000000000                1
  -9.4689637122353485       -1.9227990931286838        0.0000000000000000                1
  -10.257105221780334       -4.2478314796114391        0.0000000000000000                1
  -9.5063307242926971       -4.2391405431019775        0.0000000000000000                1
  -10.265886708775909       -3.4976650398266487        0.0000000000000000                1
  -8.7566038191635513       -4.2232018191760661        0.0000000000000000                1
  -8.0042692764616596       -4.2093609829912424        0.0000000000000000                1
  -8.7720929725060870       -3.4435275342717175        0.0000000000000000                1
  -10.283937250119633       -2.7568163653138322        0.0000000000000000                1
  -9.4764483493446914       -2.7622714394511672        0.0000000000000000                1
  -10.460456489995728       -1.9961862705346454        0.0000000000000000                1
  -8.8407525648294047       -2.8459350697662158        0.0000000000000000                1
  -6.4655567190169521       -3.4100300333790434        0.0000000000000000                1
  -4.8441270439790181       -3.4189661460563210        0.0000000000000000                1
  -6.6558912638165779       -1.6400354143292215        0.0000000000000000                1
  -7.2467775658902900       -4.2072327831344571        0.0000000000000000                1
  -6.4822501373312624       -4.2070858032557883        0.0000000000000000                1
  -7.2453396410817064       -3.4031487349718939        0.0000000000000000                1
  -5.7121253950991759       -4.2060089106610858        0.0000000000000000                1
  -4.9509557114857907       -4.2172722059336634        0.0000000000000000                1
  -5.6463092835699937       -3.3814033087109983        0.0000000000000000                1
  -7.2002006310418301       -2.7692435779394633        0.0000000000000000                1
  -6.5251133641363817       -2.5956502303575615        0.0000000000000000                1
  -5.5781148763751709       -2.4834939504246427        0.0000000000000000                1
  -3.4595698059056073       -3.5340340502995611        0.0000000000000000                1
  -1.9976874836814564       -3.5125146727567680        0.0000000000000000                1
  -3.5524286483713614       -2.1339744983087905        0.0000000000000000                1
  -4.2109127104018222       -4.2387897762093525        0.0000000000000000                1
  -3.4812397480835018       -4.2530085433686518        0.0000000000000000                1
  -4.1364761809366186       -3.5023587095163715        0.0000000000000000                1
  -2.7449244253696339       -4.2551881831191194        0.0000000000000000                1
  -1.9995545248341329       -4.2535108383434901        0.0000000000000000                1
  -2.7417735890309718       -3.5203849467152013        0.0000000000000000                1
  -4.0274731923366502       -2.9593880183344488        0.0000000000000000                1
  -3.4820589042200063       -2.8543434342739160        0.0000000000000000                1
  -2.7440355151516700       -2.7931119812884502        0.0000000000000000                1
  -1.9910155649695045       -2.7822414632915002        0.0000000000000000                1
  -2.7355848584647551       -2.0462747518089355        0.0000000000000000                1
 -0.50532838247171796       -3.5094684152628099        0.0000000000000000                1
  0.98913204461537141       -3.5029538962110562        0.0000000000000000                1
 -0.53046273869735916       -2.1136471999074717        0.0000000000000000                1
  -1.2508449999826941       -4.2525761745106685        0.0000000000000000                1
 -0.50198601336225523       -4.2517767676750085        0.0000000000000000                1
  -1.2505029141880235       -3.5113818506190633        0.0000000000000000                1
  0.24675187959488745       -4.2511275119295595        0.0000000000000000                1
  0.99417287131768628       -4.2551478702635386        0.0000000000000000                1
  0.24007319849745679       -3.5040613310446465        0.0000000000000000                1
  -1.2478833900355366       -2.7888831258700049        0.0000000000000000                1
 -0.51431122870780421       -2.7874142434313871        0.0000000000000000                1
  -1.2373001984649588       -2.1095323580921761        0.0000000000000000                1
  0.21852073488572640       -2.7686351119152999        0.0000000000000000                1
  0.96651777226521496       -2.7415257035206411        0.0000000000000000                1
  0.16724498526179851       -2.0700201009601975        0.0000000000000000                1
   2.4621866620041288       -3.6333790546252831        0.0000000000000000                1
   4.2872311590168319       -3.7188064738688702        0.0000000000000000                1
   2.6548783879831523       -1.8986022698144955        0.0000000000000000                1
   1.7302270123392383       -4.2767402944982127        0.0000000000000000                1
   2.4156364000305350       -4.3400589713859157        0.0000000000000000                1
   1.7378822035653789       -3.5309171776099473        0.0000000000000000                1
   2.8803680654577479       -4.4507127156773176        0.0000000000000000                1
   3.2455509709091475       -3.9314013326660238        0.0000000000000000                1
   1.7487704137104532       -2.7412596108416425        0.0000000000000000                1
   2.5649694305767379       -2.8372378783256549        0.0000000000000000                1
   1.6947679432048450       -1.8932019080399578        0.0000000000000000                1
   3.2078281496026193       -3.0172656708683059        0.0000000000000000                1
   5.7561505172958878       -3.5772065234068560        0.0000000000000000                1
   7.0422172614508254       -3.5523603667880570        0.0000000000000000                1
   5.3273287634899118       -2.1279692069539600        0.0000000000000000                1
   6.3243516633284997       -4.3714894292781601        0.0000000000000000                1
   6.8343182598257881       -4.3576668265002372        0.0000000000000000                1
   6.3516431809807923       -2.7231953440332139        0.0000000000000000                1
   6.8664900611960409       -2.7803820517234428        0.0000000000000000                1
   6.2664123846285680       -2.0631526554035742        0.0000000000000000                1
   8.5163848712364345       -3.4943410765441825        0.0000000000000000                1
   9.9625061780193018       -3.5051151431906984        0.0000000000000000                1
   8.5036066619351836       -2.0409761695945110        0.0000000000000000                1
   7.7888569351837003       -4.3823578705155652        0.0000000000000000                1
   8.6031796060459609       -4.4227745591066707        0.0000000000000000                1
   7.7234688247851464       -3.4917361921082595        0.0000000000000000                1
   7.6214768946549718       -4.7406573528107279        0.0000000000000000                1
   7.8286694277495119       -4.7177542280863891        0.0000000000000000                1
   7.3981404986828201       -4.4735447284096104        0.0000000000000000                1
   8.0302354997773779       -4.7470410633591786        0.0000000000000000                1
   8.1784844784539175       -4.5023418219018154        0.0000000000000000                1
   7.4067279376848267       -4.0070086745333526        0.0000000000000000                1
   7.7362910576137862       -3.9639048614995982        0.0000000000000000                1
   8.1673588097473555       -3.9266071683128443        0.0000000000000000                1
   8.4876129393746123       -4.0011695849442637        0.0000000000000000                1
   8.0731279341327618       -3.5621256536042352        0.0000000000000000                1
   8.3332492407215746       -3.7028904682634551        0.0000000000000000                1
   8.4921535261885399       -3.7242571167903264        0.0000000000000000                1
   8.3061984014526189       -3.5320536301326553        0.0000000000000000                1
   9.3084626753413620       -4.3014693344928761        0.0000000000000000                1
   10.152838113594457       -4.3536501772706355        0.0000000000000000                1
   9.2317509208642274       -3.4899859053414248        0.0000000000000000                1
   9.1521290261014219       -4.7474749823249125        0.0000000000000000                1
   9.3497715213767307       -4.7144147692073268        0.0000000000000000                1
   8.9718343088590462       -4.5431291040374839        0.0000000000000000                1
   9.5522100588030998       -4.7451501824699891        0.0000000000000000                1
   9.7271051455917696       -4.5295922977268219        0.0000000000000000                1
   8.8891282835180103       -3.9238568545857375        0.0000000000000000                1
   9.2689572728091356       -3.9376485184970909        0.0000000000000000                1
   8.8746770365365872       -3.4797674188472572        0.0000000000000000                1
   8.7480914287255960       -4.1548798248774554        0.0000000000000000                1
   8.9155410190860405       -4.1612707536312765        0.0000000000000000                1
   8.7059301946889072       -3.9572885028784723        0.0000000000000000                1
   9.0726017785850335       -4.1155270809251041        0.0000000000000000                1
   9.0741456430033836       -3.9279579406696947        0.0000000000000000                1
   8.6896861382788817       -3.7214115146691720        0.0000000000000000                1
   8.8780746401309365       -3.7110316991267269        0.0000000000000000                1
   8.6900015279823393       -3.5320053612394768        0.0000000000000000                1
   9.0636748372150535       -3.7091919796190163        0.0000000000000000                1
   9.2529608139137789       -3.7080214891381611        0.0000000000000000                1
   9.0585771844145206       -3.5294377753957971        0.0000000000000000                1
   9.6569427973877868       -3.9100520888893051        0.0000000000000000                1
   10.122170943087140       -3.8908433534234410        0.0000000000000000                1
   9.6537172524847250       -3.5005884002156944        0.0000000000000000                1
   9.4987214750587690       -4.1097638493685071        0.0000000000000000                1
   9.6843260995237479       -4.1426041811297827        0.0000000000000000                1
   9.4651200320638935       -3.9233508685344387        0.0000000000000000                1
   9.8691763063450253       -4.1164394820692252        0.0000000000000000                1
   9.8591678144733166       -3.9090119002418757        0.0000000000000000                1
   9.4496919503216876       -3.7041334898954301        0.0000000000000000                1
   9.6524011491198323       -3.7044112357878443        0.0000000000000000                1
   9.4427091988230121       -3.4999668190711244        0.0000000000000000                1
   9.8140456355012784       -3.7206664478866727        0.0000000000000000                1
   7.7883705728067838       -2.7530530584358530        0.0000000000000000                1
   8.5127330675238078       -2.7698997549550950        0.0000000000000000                1
   7.7182894837896479       -1.9558443229152953        0.0000000000000000                1
   7.3891995863980213       -3.0948190375911131        0.0000000000000000                1
   7.6607552191627626       -3.1214176026117961        0.0000000000000000                1
   7.3579506436736990       -2.7695840601317605        0.0000000000000000                1
   8.1115449039207892       -3.1274603190420618        0.0000000000000000                1
   8.5239677320635323       -3.1272209857403661        0.0000000000000000                1
   8.0939365076296212       -2.7504510354720608        0.0000000000000000                1
   7.9266159150680551       -3.2936790018955509        0.0000000000000000                1
   8.0913593017669250       -3.3206954183490147        0.0000000000000000                1
   7.9188439636320416       -3.1236538665564497        0.0000000000000000                1
   8.2994127684674321       -3.3225810252875512        0.0000000000000000                1
   8.4750417054246743       -3.3147781769126623        0.0000000000000000                1
   8.3032873470554165       -3.1287228078051617        0.0000000000000000                1
   7.9464258791545088       -2.9582908410238953        0.0000000000000000                1
   8.1040342430395977       -2.9422165204706503        0.0000000000000000                1
   8.3024614251014572       -2.9419490551225911        0.0000000000000000                1
   8.4739405996578139       -2.9429920932129101        0.0000000000000000                1
   8.3027882026645532       -2.7534687599861964        0.0000000000000000                1
   7.3919783970378203       -2.4384524394373912        0.0000000000000000                1
   7.6626078623045304       -2.3841368385647530        0.0000000000000000                1
   8.1166163121952941       -2.3670945453816876        0.0000000000000000                1
   8.5029835594915539       -2.3500227095614141        0.0000000000000000                1
   8.1330627738131582       -1.9001065253578260        0.0000000000000000                1
   7.9477287082931785       -2.5398761361428730        0.0000000000000000                1
   8.1056863584514147       -2.5558299542136860        0.0000000000000000                1
   7.9228569689350063       -2.3670113826388706        0.0000000000000000                1
   8.3061181912547326       -2.5582634208730628        0.0000000000000000                1
   8.5029895594236944       -2.5598977875920839        0.0000000000000000                1
   8.3057141227990403       -2.3579007602996573        0.0000000000000000                1
   7.9374160084203806       -2.1854339656266566        0.0000000000000000                1
   8.1173350512885882       -2.1714322165421218        0.0000000000000000                1
   8.2898128348192550       -2.1986573711396575        0.0000000000000000                1
   9.2538476120184061       -2.7461519350786761        0.0000000000000000                1
   9.9829931537068060       -2.7595123991255854        0.0000000000000000                1
   9.2482277444456003       -2.0128991968472780        0.0000000000000000                1
   8.8731837398437765       -3.1268307318366881        0.0000000000000000                1
   9.2533755839938685       -3.1275109963813925        0.0000000000000000                1
   8.8725009300527855       -2.7466416418685813        0.0000000000000000                1
   8.6875135591458914       -3.3130344769019695        0.0000000000000000                1
   8.8741147873148432       -3.3264006400146795        0.0000000000000000                1
   8.6741125913409451       -3.1261259795299443        0.0000000000000000                1
   8.6062943220419612       -3.3961469810880809        0.0000000000000000                1
   8.6894899025245156       -3.4053316496532067        0.0000000000000000                1
   8.5966112005746975       -3.3120668336338861        0.0000000000000000                1
   8.7707241190206950       -3.3964264666239439        0.0000000000000000                1
   8.7782960545756250       -3.3199562077225444        0.0000000000000000                1
   8.6046928222842780       -3.2299431458276757        0.0000000000000000                1
   8.6805069902059202       -3.2219908517583078        0.0000000000000000                1
   8.7774764760005706       -3.2226359144049668        0.0000000000000000                1
   8.8735716617067144       -3.2237958510397213        0.0000000000000000                1
   8.7762879559836495       -3.1264719516536363        0.0000000000000000                1
   9.0625406845871392       -3.3151116770496181        0.0000000000000000                1
   9.2690458143723280       -3.3320176141526483        0.0000000000000000                1
   9.0633638013775677       -3.1268396870433568        0.0000000000000000                1
   8.9782021282185323       -3.3968884667134081        0.0000000000000000                1
   9.0597377795105700       -3.4068835366122014        0.0000000000000000                1
   8.9699509614782489       -3.3205262340426640        0.0000000000000000                1
   9.1428860312037337       -3.4004023131664751        0.0000000000000000                1
   9.1569198745055882       -3.3229053540751328        0.0000000000000000                1
   8.9687712779587496       -3.2229908189261636        0.0000000000000000                1
   9.0635665658325681       -3.2223544706743641        0.0000000000000000                1
   8.9684664662438429       -3.1268271133566330        0.0000000000000000                1
   9.1603342219383048       -3.2236568052132935        0.0000000000000000                1
   9.2605214562358125       -3.2218468199606312        0.0000000000000000                1
   9.1586828907758129       -3.1270817374477060        0.0000000000000000                1
   8.6850440190501672       -2.9375244115552284        0.0000000000000000                1
   8.8731665988626265       -2.9366393565798976        0.0000000000000000                1
   8.6684655864752429       -2.7313264237373045        0.0000000000000000                1
   8.6038296246736596       -3.0221042730288863        0.0000000000000000                1
   8.6798017623096406       -3.0301895075465821        0.0000000000000000                1
   8.5938689458434929       -2.9406005293958368        0.0000000000000000                1
   8.7770680852868104       -3.0312525773760903        0.0000000000000000                1
   8.8731815440950665       -3.0315376936425023        0.0000000000000000                1
   8.7776838326637208       -2.9364503382088274        0.0000000000000000                1
   8.6001679881376134       -2.8574025726908436        0.0000000000000000                1
   8.6773443043807124       -2.8432227182779899        0.0000000000000000                1
   8.7763915520630285       -2.8396993135661668        0.0000000000000000                1
   8.8729255436352439       -2.8413238110824084        0.0000000000000000                1
   8.7782326386674132       -2.7395591540708617        0.0000000000000000                1
   9.0626515147094455       -2.9373486271365126        0.0000000000000000                1
   9.2528594914469853       -2.9374035954885152        0.0000000000000000                1
   9.0625972766815757       -2.7471411211394199        0.0000000000000000                1
   8.9682827593529240       -3.0317185085045151        0.0000000000000000                1
   9.0628908894282496       -3.0318640479243553        0.0000000000000000                1
   8.9681367472314975       -2.9371096626256419        0.0000000000000000                1
   9.1575393691463276       -3.0321470612538399        0.0000000000000000                1
   9.2528514935088033       -3.0331243542232644        0.0000000000000000                1
   9.1572845832022374       -2.9374100631715141        0.0000000000000000                1
   8.9678538864334065       -2.8424619362213033        0.0000000000000000                1
   9.0625901010175980       -2.8427156540900524        0.0000000000000000                1
   8.9668782330871615       -2.7471535809591541        0.0000000000000000                1
   9.1575005157056264       -2.8424994880721735        0.0000000000000000                1
   9.2532150715244352       -2.8414472142195137        0.0000000000000000                1
   9.1585536199982407       -2.7467839386907849        0.0000000000000000                1
   9.6161482992699714       -3.1044730704409793        0.0000000000000000                1
   10.068778781800305       -3.1357813743658443        0.0000000000000000                1
   9.6410259550704698       -2.7709357160707007        0.0000000000000000                1
   9.4262765884872675       -3.2945557997590038        0.0000000000000000                1
   9.6372175837315304       -3.3031178746596619        0.0000000000000000                1
   9.4607466103824382       -3.1413539008314033        0.0000000000000000                1
   9.3383606273543425       -3.2109890699961765        0.0000000000000000                1
   9.3488392449766948       -3.1340257743207007        0.0000000000000000                1
   9.7947339809182896       -3.2882284346628086        0.0000000000000000                1
   9.8173162246115098       -3.1231024018187115        0.0000000000000000                1
   9.4461911397254177       -2.9375822772970577        0.0000000000000000                1
   9.6720260348911964       -2.9418029798929668        0.0000000000000000                1
   9.4668585545742001       -2.7313562635971000        0.0000000000000000                1
   9.3505305219112937       -3.0346233660695616        0.0000000000000000                1
   9.4515764914183240       -3.0315989731039958        0.0000000000000000                1
   9.3501096271383037       -2.9374118671851304        0.0000000000000000                1
   9.5313316784638911       -3.0188448402089616        0.0000000000000000                1