 VARIABLES = "X", "Y", "Z", "Material ID"
 ZONE F=FEPOINT, ET=QUADRILATERAL, N=        1835 E=        1690
  -17.215733295691599       -2.0767940302199768        0.0000000000000000                1
  -14.041535804430744       -1.9742632778067506        0.0000000000000000                1
  -10.889237941440586       -2.2386237068079740        0.0000000000000000                1
  -8.0697575887943849       -2.2035046771267366        0.0000000000000000                1
  -4.5009058800400439       -2.4859909482552864        0.0000000000000000                1
  -1.9649606362414451       -2.0679535251069532        0.0000000000000000                1
  0.95778295807808767       -2.0141932475875572        0.0000000000000000                1
   3.7716429593564373       -2.1170218334709427        0.0000000000000000                1
   7.0483521194598691       -2.0662340850432654        0.0000000000000000                1
   9.9631084479387884       -2.0404469587692846        0.0000000000000000                1
   12.948248714250836       -2.0532385419449679        0.0000000000000000                1
   16.216636954015058       -1.6830717776389161        0.0000000000000000                1
  -14.047113931278957       0.95422136035726202        0.0000000000000000                1
  -11.290260268939432       0.53058371871987686        0.0000000000000000                1
  -8.1013031038062540       0.92990891686986354        0.0000000000000000                1
  -4.9642332202462267       0.83031959190626681        0.0000000000000000                1
   10.365270823866906       0.74411399436065717        0.0000000000000000                1
   12.466996899706235        1.4959055087044313        0.0000000000000000                1
   15.847656250000000       0.84765625000000000        0.0000000000000000                1
  -13.871592423481726        3.5846967433181574        0.0000000000000000                1
  -11.077786409190423        3.8622803373783943        0.0000000000000000                1
  -7.9646092359178677        3.9788178752165022        0.0000000000000000                1
  -4.7154334263510522        4.0728584570530426        0.0000000000000000                1
   4.2891232802501253        4.5451302100479012        0.0000000000000000                1
   13.080389339651543        4.0578715547153106        0.0000000000000000                1
  -10.774165282803619        6.8507647527193676        0.0000000000000000                1
  -7.9641000668264068        6.9743552040593029        0.0000000000000000                1
  -5.1006384767680295        7.0674397170060397        0.0000000000000000                1
  -2.1481052509478094        6.9754783631367419        0.0000000000000000                1
  0.75243924831534126        7.2433646703650618        0.0000000000000000                1
   4.0870800741886626        6.7443037507512846        0.0000000000000000                1
   6.6505420551357890        7.1004690674111242        0.0000000000000000                1
   10.073691792998263        7.2065587882237407        0.0000000000000000                1
  -8.1622520050532863        9.8665679467724345        0.0000000000000000                1
  -5.0054609568137014        10.001899740686985        0.0000000000000000                1
  -2.0373938527879512        10.025040139608588        0.0000000000000000                1
  0.98934746131360640        9.9825874163500643        0.0000000000000000                1
   3.7521230591484169        10.019554474853926        0.0000000000000000                1
   6.9189581960882309        10.039807374655888        0.0000000000000000                1
   9.8047870426524142        9.9753772637869194        0.0000000000000000                1
  -7.5959914326119931        12.262803230810311        0.0000000000000000                1
  -4.9926354511025730        12.948936394729261        0.0000000000000000                1
  -1.9618756197055747        12.974858980984376        0.0000000000000000                1
   1.0054555783177883        12.998101556123453        0.0000000000000000                1
   3.9961641531084320        13.036771707843972        0.0000000000000000                1
   7.0511869255782038        13.301401797384708        0.0000000000000000                1
  -5.2548111463848199        15.934907955083716        0.0000000000000000                1
  -1.8829886701148144        16.029095916205819        0.0000000000000000                1
   3.9795779241348770        16.027422924267736        0.0000000000000000                1
  -1.9954532090167547        18.933752234585302        0.0000000000000000                1
  0.94152438192343846        18.921497413988394        0.0000000000000000                1
   3.7022102029007802        18.952277556249928        0.0000000000000000                1
  -1.9237577851686620        21.618253071026427        0.0000000000000000                1
   1.0265186089516476        22.244342519755406        0.0000000000000000                1
  -18.016091574484552       -3.4263888438230015        0.0000000000000000                1
  -17.157340361028979       -3.4877579545573840        0.0000000000000000                1
  -18.236795049326414       -4.1844281296851715        0.0000000000000000                1
  -17.188512762211872       -4.2284766858140230        0.0000000000000000                1
  -17.840477485980038       -2.8018208852577633        0.0000000000000000                1
  -17.116486055138243       -2.7956452232661553        0.0000000000000000                1
  -17.768695845329923       -2.3895633776359704        0.0000000000000000                1
  -15.526433602937521       -3.4957865689377030        0.0000000000000000                1
  -13.983119515453671       -3.4798954335875760        0.0000000000000000                1
  -15.534764782471484       -2.0158484360589584        0.0000000000000000                1
  -16.306523061502915       -4.2433462397143238        0.0000000000000000                1
  -15.517025730089451       -4.2461809434721713        0.0000000000000000                1
  -16.323260337436256       -3.4980467611651780        0.0000000000000000                1
  -14.751458018416560       -4.2447739675879683        0.0000000000000000                1
  -13.992776374441465       -4.2439592310808925        0.0000000000000000                1
  -14.753099913554523       -3.4893903237881592        0.0000000000000000                1
  -16.325271678365269       -2.7654599820890935        0.0000000000000000                1
  -15.531071743567544       -2.7514099254047193        0.0000000000000000                1
  -16.317703594862063       -2.0417483697294814        0.0000000000000000                1
  -14.760778844313769       -2.7379974409735595        0.0000000000000000                1
  -13.997137822549298       -2.7145564225081529        0.0000000000000000                1
  -14.774378293334903       -1.9963630734925977        0.0000000000000000                1
  -12.473976967156659       -3.5348395414224871        0.0000000000000000                1
  -11.022396242130146       -3.5149460032977404        0.0000000000000000                1
  -13.238733344751568       -4.2491281387852835        0.0000000000000000                1
  -12.492179785739426       -4.2581752158743500        0.0000000000000000                1
  -13.215710629426823       -3.4930102734906923        0.0000000000000000                1
  -11.750799841939990       -4.2608345374731798        0.0000000000000000                1
  -11.006774864074783       -4.2548744728016850        0.0000000000000000                1
  -11.754356868500135       -3.5449206935345594        0.0000000000000000                1
  -13.150134843622366       -2.6488837899296365        0.0000000000000000                1
  -12.419328544827478       -2.8965618239333972        0.0000000000000000                1
  -13.398789061298402       -1.9189460147396904        0.0000000000000000                1
  -11.781003695362259       -2.9189607636668411        0.0000000000000000                1
  -11.075659878973267       -2.7269846404522666        0.0000000000000000                1
  -9.5118124986841561       -3.4950661952589535        0.0000000000000000                1
  -8.0164277834346365       -3.3843530804664486        0.0000000000000000                1
  -9.4689637122335366       -1.9227990931282062        0.0000000000000000                1
  -10.257105221780334       -4.2478314796114391        0.0000000000000000                1
  -9.5063307242926989       -4.2391405431019766        0.0000000000000000                1
  -10.265886708775911       -3.4976650398266473        0.0000000000000000                1
  -8.7566038191635585       -4.2232018191760616        0.0000000000000000                1
  -8.0042692764610308       -4.2093609829911172        0.0000000000000000                1
  -8.7720929725054226       -3.4435275342715395        0.0000000000000000                1
  -10.283937250119635       -2.7568163653138287        0.0000000000000000                1
  -9.4764483493440270       -2.7622714394509900        0.0000000000000000                1
  -10.460456489995734       -1.9961862705346407        0.0000000000000000                1
  -8.8407525648280689       -2.8459350697658645        0.0000000000000000                1
  -6.4655567172051223       -3.4100300331494755        0.0000000000000000                1
  -4.8441269404560385       -3.4189661427390980        0.0000000000000000                1
  -6.6558912602625844       -1.6400354137456346        0.0000000000000000                1
  -7.2467775658645017       -4.2072327831309630        0.0000000000000000                1
  -6.4822501368614160       -4.2070858032082361        0.0000000000000000                1
  -7.2453396410094548       -3.4031487349608067        0.0000000000000000                1
  -5.7121253921384847       -4.2060089106321987        0.0000000000000000                1
  -4.9509556830976944       -4.2172722088717105        0.0000000000000000                1
  -5.6463092552832332       -3.3814033058100108        0.0000000000000000                1
  -7.2002006309226125       -2.7692435779191453        0.0000000000000000                1
  -6.5251133607707281       -2.5956502298705777        0.0000000000000000                1
  -5.5781148081870233       -2.4834939418496274        0.0000000000000000                1
  -3.4595629842744628       -3.5340347073392002        0.0000000000000000                1
  -1.9974412653974702       -3.5125745846678393        0.0000000000000000                1
  -3.5524157382410766       -2.1339731755182467        0.0000000000000000                1
  -4.2109123891132887       -4.2387898287904191        0.0000000000000000                1
  -3.4812369330833897       -4.2530092039359157        0.0000000000000000                1
  -4.1364754301512479       -3.5023587499258695        0.0000000000000000                1
  -2.7449063483797262       -4.2551943769318212        0.0000000000000000                1
  -1.9994699044367539       -4.2535541319858909        0.0000000000000000                1
  -2.7417260907750007       -3.5203922432824650        0.0000000000000000                1
  -4.0274720032685112       -2.9593879751947103        0.0000000000000000                1
  -3.4820476208314477       -2.8543431791297476        0.0000000000000000                1
  -2.7439508470459448       -2.7931119719587367        0.0000000000000000                1
  -1.9905340268250014       -2.7822585978157064        0.0000000000000000                1
  -2.7354815803876260       -2.0462642980621433        0.0000000000000000                1
 -0.50275832036626034       -3.5111934723752789        0.0000000000000000                1
  0.99338195967285348       -3.5150254543809547        0.0000000000000000                1
 -0.51894072998451635       -2.1126418153682351        0.0000000000000000                1
  -1.2505606572746752       -4.2527998788693822        0.0000000000000000                1
 -0.50132429841748083       -4.2526080006766955        0.0000000000000000                1
  -1.2495604899090398       -3.5117519371223813        0.0000000000000000                1
  0.24771012470669854       -4.2532935220021786        0.0000000000000000                1
  0.99461321022674565       -4.2589354373039701        0.0000000000000000                1
  0.24469870839822416       -3.5096918852128782        0.0000000000000000                1
  -1.2457950723717397       -2.7890809387922464        0.0000000000000000                1
 -0.50747963521269812       -2.7888444712321938        0.0000000000000000                1
  -1.2342893563850517       -2.1092498339030148        0.0000000000000000                1
  0.23406877167003512       -2.7767082786074333        0.0000000000000000                1
  0.98729896047978571       -2.7680360102341566        0.0000000000000000                1
  0.20298312126160967       -2.0681166623039546        0.0000000000000000                1
   2.4492163838858745       -3.6393461011278552        0.0000000000000000                1
   4.2524109318882850       -3.6758149376468774        0.0000000000000000                1
   2.5849201285954830       -2.0524435426101340        0.0000000000000000                1
   1.7286450885197986       -4.2806372134846074        0.0000000000000000                1
   2.4108901196773163       -4.3406945222110531        0.0000000000000000                1
   1.7358442797139824       -3.5459013343337507        0.0000000000000000                1
   2.8741396614458754       -4.4478233422033826        0.0000000000000000                1
   3.2217355017509388       -3.9138110681940272        0.0000000000000000                1
   1.7544177828696825       -2.7881994746584131        0.0000000000000000                1
   2.5360249269029551       -2.8632962481703430        0.0000000000000000                1
   1.7516569587731936       -2.0108750967148765        0.0000000000000000                1
   3.1569693107099974       -2.9951932887200923        0.0000000000000000                1
   5.7377993657926201       -3.5482747180538032        0.0000000000000000                1
   7.0386604125613381       -3.5452529269212492        0.0000000000000000                1
   5.2885888254354638       -2.0566217203460306        0.0000000000000000                1
   6.3204938798024042       -4.3649025393767751        0.0000000000000000                1
   6.8319999387155148       -4.3535223503111506        0.0000000000000000                1
   6.3395440009194415       -2.6977661863152504        0.0000000000000000                1
   6.8606103774589879       -2.7665906830476774        0.0000000000000000                1
   6.2418962901938082       -2.0153434958230600        0.0000000000000000                1
   8.5163832982855823       -3.4943352879638185        0.0000000000000000                1
   9.9625145393312575       -3.5051072663492904        0.0000000000000000                1
   8.5037492280293900       -2.0402419210128135        0.0000000000000000                1
   7.7887131329506651       -4.3820134049995714        0.0000000000000000                1
   8.6031741239140622       -4.4227584201064829        0.0000000000000000                1
   7.7229556646524555       -3.4904622388006441        0.0000000000000000                1
   7.6214030754635882       -4.7404875852055035        0.0000000000000000                1
   7.8286216518049052       -4.7176404352404706        0.0000000000000000                1
   7.3976124803749341       -4.4724544163871647        0.0000000000000000                1
   8.0302216696329598       -4.7470040385982939        0.0000000000000000                1
   8.1784491412663485       -4.5022490978339116        0.0000000000000000                1
   7.4059259668990949       -4.0052507894448635        0.0000000000000000                1
   7.7359029753418964       -3.9630015035987145        0.0000000000000000                1
   8.1672888415651279       -3.9264202182452435        0.0000000000000000                1
   8.4876050041621571       -4.0011456853667822        0.0000000000000000                1
   8.0730472280880381       -3.5618973280971700        0.0000000000000000                1
   8.3332380771936307       -3.7028555402450989        0.0000000000000000                1
   8.4921490080823645       -3.7242428183336864        0.0000000000000000                1
   8.3061863602397921       -3.5320144063055072        0.0000000000000000                1
   9.3084626817228351       -4.3014692192798236        0.0000000000000000                1
   10.152843968503078       -4.3536447117674077        0.0000000000000000                1
   9.2317509264214017       -3.4899858989974297        0.0000000000000000                1
   9.1521290070035537       -4.7474749066709290        0.0000000000000000                1
   9.3497715243394737       -4.7144147156386831        0.0000000000000000                1
   8.9718339552319879       -4.5431279402595131        0.0000000000000000                1
   9.5522100836431267       -4.7451501537172058        0.0000000000000000                1
   9.7271055558886115       -4.5295919034563932        0.0000000000000000                1
   8.8891281891689164       -3.9238565033967356        0.0000000000000000                1
   9.2689572750528448       -3.9376485060675690        0.0000000000000000                1
   8.8746770083878541       -3.4797673090911507        0.0000000000000000                1
   8.7480907045329825       -4.1548773960677003        0.0000000000000000                1
   8.9155407625373737       -4.1612698798004155        0.0000000000000000                1
   8.7059293014163455       -3.9572854904507970        0.0000000000000000                1
   9.0726017537629602       -4.1155269814381166        0.0000000000000000                1
   9.0741456310215778       -3.9279578897349867        0.0000000000000000                1
   8.6896855105931259       -3.7214093314839949        0.0000000000000000                1
   8.8780745757665915       -3.7110314547473919        0.0000000000000000                1
   8.6900012714366142       -3.5320044107381223        0.0000000000000000                1
   9.0636748320639047       -3.7091919568494358        0.0000000000000000                1
   9.2529608178128360       -3.7080214827017386        0.0000000000000000                1
   9.0585771821450507       -3.5294377645709578        0.0000000000000000                1
   9.6569429406872516       -3.9100519509741840        0.0000000000000000                1
   10.122178001721517       -3.8908367178617511        0.0000000000000000                1
   9.6537179847405827       -3.5005877020464777        0.0000000000000000                1
   9.4987215086658487       -4.1097638116302626        0.0000000000000000                1
   9.6843264033907328       -4.1426038894450752        0.0000000000000000                1
   9.4651200602504098       -3.9233508384072926        0.0000000000000000                1
   9.8691770923253976       -4.1164387351198970        0.0000000000000000                1
   9.8591688834055056       -3.9090108833513280        0.0000000000000000                1
   9.4496919987577623       -3.7041334429218304        0.0000000000000000                1
   9.6524015651587529       -3.7044108385175090        0.0000000000000000                1
   9.4427092721307240       -3.4999667484827177        0.0000000000000000                1
   9.8140466179608712       -3.7206655114215565        0.0000000000000000                1
   7.7881520075062598       -2.7516215566756861        0.0000000000000000                1
   8.5127375927955811       -2.7698909114418302        0.0000000000000000                1
   7.7163823688975315       -1.9482867127017780        0.0000000000000000                1
   7.3881781358806071       -3.0916869391818040        0.0000000000000000                1
   7.6603491860205803       -3.1200134934160584        0.0000000000000000                1
   7.3564622837643396       -2.7645284770249559        0.0000000000000000                1
   8.1115378493795145       -3.1273819041918034        0.0000000000000000                1
   8.5239678205948302       -3.1272179235975477        0.0000000000000000                1
   8.0939506471140703       -2.7502285326887330        0.0000000000000000                1
   7.9265320466671731       -3.2933817823602674        0.0000000000000000                1
   8.0913194190473821       -3.3205581547022014        0.0000000000000000                1
   7.9187806330891801       -3.1233086318934831        0.0000000000000000                1
   8.2994057232893663       -3.3225526014354196        0.0000000000000000                1
   8.4750408224372098       -3.3147737394358514        0.0000000000000000                1
   8.3032866042326283       -3.1287026526776538        0.0000000000000000                1
   7.9464089681645378       -2.9579908735923377        0.0000000000000000                1
   8.1040368817301704       -2.9420796898887480        0.0000000000000000                1
   8.3024661433272957       -2.9419223798364413        0.0000000000000000                1
   8.4739420638065219       -2.9429876962419623        0.0000000000000000                1
   8.3028004800433930       -2.7534253305236618        0.0000000000000000                1
   7.3904204158377453       -2.4322013785818495        0.0000000000000000                1
   7.6618976811327846       -2.3803753113861097        0.0000000000000000                1
   8.1166985858902745       -2.3666291046612682        0.0000000000000000                1
   8.5030395064430486       -2.3498900967031737        0.0000000000000000                1
   8.1330109733327873       -1.8974541792564386        0.0000000000000000                1
   7.9477600242920881       -2.5392427872646288        0.0000000000000000                1
   8.1057289586651500       -2.5555555761733202        0.0000000000000000                1
   7.9228204545492673       -2.3656486149616045        0.0000000000000000                1
   8.3061483028919927       -2.5581821620846097        0.0000000000000000                1
   8.5030068575939861       -2.5598660839622411        0.0000000000000000                1
   8.3057847783967524       -2.3576846952516881        0.0000000000000000                1
   7.9373607708549674       -2.1834972648116451        0.0000000000000000                1
   8.1173847231699323       -2.1702284855969385        0.0000000000000000                1
   8.2899294709541600       -2.1981904737386206        0.0000000000000000                1
   9.2538476406054553       -2.7461519111609634        0.0000000000000000                1
   9.9830301803867272       -2.7594779050227296        0.0000000000000000                1
   9.2482999448296610       -2.0127633504958675        0.0000000000000000                1
   8.8731837399983959       -3.1268307310832051        0.0000000000000000                1
   9.2533755844286407       -3.1275109959584353        0.0000000000000000                1
   8.8725010590626301       -2.7466415013164514        0.0000000000000000                1
   8.6875135511882728       -3.3130344199062782        0.0000000000000000                1
   8.8741147859925888       -3.3264006340281616        0.0000000000000000                1
   8.6741126074164736       -3.1261257986485833        0.0000000000000000                1
   8.6062941996832443       -3.3961464423288112        0.0000000000000000                1
   8.6894898422963447       -3.4053313991870051        0.0000000000000000                1
   8.5966111163855388       -3.3120663061413889        0.0000000000000000                1
   8.7707241090272721       -3.3964264246280824        0.0000000000000000                1
   8.7782960524588933       -3.3199561941322591        0.0000000000000000                1
   8.6046928105003673       -3.2299428166959059        0.0000000000000000                1
   8.6805069954711804       -3.2219907381630377        0.0000000000000000                1
   8.7774764767249014       -3.2226359044955113        0.0000000000000000                1
   8.8735716616980334       -3.2237958500899908        0.0000000000000000                1
   8.7762879577443318       -3.1264719392682729        0.0000000000000000                1
   9.0625406845465282       -3.3151116767762137        0.0000000000000000                1
   9.2690458195296834       -3.3320176091283709        0.0000000000000000                1
   9.0633638013839164       -3.1268396870319815        0.0000000000000000                1
   8.9782021270033336       -3.3968884615579418        0.0000000000000000                1
   9.0597377789609048       -3.4068835337006824        0.0000000000000000                1
   8.9699509608575347       -3.3205262313919404        0.0000000000000000                1
   9.1428860314375306       -3.4004023125855896        0.0000000000000000                1
   9.1569198748010461       -3.3229053537059041        0.0000000000000000                1
   8.9687712779231301       -3.2229908187145422        0.0000000000000000                1
   9.0635665658303886       -3.2223544706118714        0.0000000000000000                1
   8.9684664662602955       -3.1268271133032566        0.0000000000000000                1
   9.1603342221030388       -3.2236568050455254        0.0000000000000000                1
   9.2605214583290163       -3.2218468179307345        0.0000000000000000                1
   9.1586828908321216       -3.1270817373919821        0.0000000000000000                1
   8.6850440705518945       -2.9375243331880183        0.0000000000000000                1
   8.8731666037228507       -2.9366393513152320        0.0000000000000000                1
   8.6684674548535998       -2.7313238125675410        0.0000000000000000                1
   8.6038297107259432       -3.0221039486251335        0.0000000000000000                1
   8.6798017839102144       -3.0301893916781317        0.0000000000000000                1
   8.5938692509138814       -2.9405999158798353        0.0000000000000000                1
   8.7770680885188312       -3.0312525666664141        0.0000000000000000                1
   8.8731815447425753       -3.0315376925440654        0.0000000000000000                1
   8.7776838498913357       -2.9364503160795219        0.0000000000000000                1
   8.6001684873342725       -2.8574017925927611        0.0000000000000000                1
   8.6773446400965213       -2.8432222522894328        0.0000000000000000                1
   8.7763916682219847       -2.8396991776890608        0.0000000000000000                1
   8.8729255740903703       -2.8413237783888659        0.0000000000000000                1
   8.7782332217739647       -2.7395584298780986        0.0000000000000000                1
   9.0626515149908045       -2.9373486268784252        0.0000000000000000                1
   9.2528594927831183       -2.9374035942630288        0.0000000000000000                1
   9.0625972965244124       -2.7471411025784884        0.0000000000000000                1
   8.9682827594966668       -3.0317185083437010        0.0000000000000000                1
   9.0628908894621052       -3.0318640478919709        0.0000000000000000                1
   8.9681367483558692       -2.9371096615080861        0.0000000000000000                1
   9.1575393691973677       -3.0321470612064121        0.0000000000000000                1
   9.2528514939937878       -3.0331243537571422        0.0000000000000000                1
   9.1572845834578569       -2.9374100629526447        0.0000000000000000                1
   8.9678538934997754       -2.8424619292111322        0.0000000000000000                1
   9.0625901035680378       -2.8427156517416132        0.0000000000000000                1
   8.9668782823372819       -2.7471535296184069        0.0000000000000000                1
   9.1575005176916608       -2.8424994864340904        0.0000000000000000                1
   9.2532150772487576       -2.8414472093048180        0.0000000000000000                1
   9.1585536385104671       -2.7467839231924760        0.0000000000000000                1
   9.6161490418638582       -3.1044723626023814        0.0000000000000000                1
   10.068806569644158       -3.1357554083649788        0.0000000000000000                1
   9.6410296570391854       -2.7709322361300974        0.0000000000000000                1
   9.4262766654834298       -3.2945557257127143        0.0000000000000000                1
   9.6372182587094724       -3.3031172305439194        0.0000000000000000                1
   9.4607466778556333       -3.1413538359362314        0.0000000000000000                1
   9.3383606326567143       -3.2109890648608732        0.0000000000000000                1
   9.3488392507190294       -3.1340257687612794        0.0000000000000000                1
   9.7947362973598633       -3.2882262371340212        0.0000000000000000                1
   9.8173210326480405       -3.1230978609909790        0.0000000000000000                1
   9.4461911866881714       -2.9375822323287650        0.0000000000000000                1
   9.6720285015376373       -2.9418006503719387        0.0000000000000000                1
   9.4668590676681905       -2.7313557843944860        0.0000000000000000                1
   9.3505305266690755       -3.0346233614723119        0.0000000000000000                1
   9.4515765339462110       -3.0315989322033166        0.0000000000000000                1
   9.3501096366907852       -2.9374118581060498        0.0000000000000000                1