 VARIABLES = "X", "Y", "Z"
 ZONE F=FEPOINT, ET=QUADRILATERAL, N=        1833 E=        1690
  -17.215879750195853       -2.0759162795369015        0.0000000000000000     
  -14.041528495428176       -1.9742603469154263        0.0000000000000000     
  -10.889282817342439       -2.2386912777404882        0.0000000000000000     
  -8.0696447704142660       -2.2035110716219743        0.0000000000000000     
  -4.5007869355253298       -2.4859891321465177        0.0000000000000000     
  -1.9649298409849756       -2.0679530400442254        0.0000000000000000     
  0.95784789615884025       -2.0141450321783525        0.0000000000000000     
   3.7715675197298859       -2.1170399403553537        0.0000000000000000     
   7.0482903071052405       -2.0662346048528639        0.0000000000000000     
   9.9630961023150633       -2.0404519091499171        0.0000000000000000     
   12.944161401670952       -2.0561546633652541        0.0000000000000000     
   16.219378298363946       -1.7114640776653807        0.0000000000000000     
  -14.047106163066356       0.95423233370942828        0.0000000000000000     
  -11.290281536629964       0.53059003443807240        0.0000000000000000     
  -8.1012981815694385       0.92990140149021694        0.0000000000000000     
  -4.9642363841374939       0.83031656815393340        0.0000000000000000     
   10.365058316580265       0.74395369363092234        0.0000000000000000     
   12.466916478036548        1.4957449074271980        0.0000000000000000     
  -13.871596362703141        3.5846911214149118        0.0000000000000000     
  -11.077759718775082        3.8623233098812526        0.0000000000000000     
  -7.9646053554521643        3.9788198484097839        0.0000000000000000     
  -4.7154506367017532        4.0727800800323255        0.0000000000000000     
   4.2885589165604312        4.5451920739719762        0.0000000000000000     
   13.080403879795462        4.0577799279344102        0.0000000000000000     
  -10.774076930058001        6.8508986153998137        0.0000000000000000     
  -7.9640943168587270        6.9743633592045340        0.0000000000000000     
  -5.1006355929675609        7.0674339356963429        0.0000000000000000     
  -2.1476902875143682        6.9755176711843907        0.0000000000000000     
  0.75316057532034841        7.2433594647715784        0.0000000000000000     
   4.0869269982893419        6.7442652548104922        0.0000000000000000     
   6.6507010152700756        7.1006409873522482        0.0000000000000000     
   10.073244290699026        7.2071565955085291        0.0000000000000000     
  -8.1622605160905106        9.8665550609064017        0.0000000000000000     
  -5.0054609556607002        10.001899742432323        0.0000000000000000     
  -2.0373923750622942        10.025040162812207        0.0000000000000000     
  0.98936863162358535        9.9825888606686970        0.0000000000000000     
   3.7521334397035000        10.019561108880929        0.0000000000000000     
   6.9189873927350733        10.039830838734316        0.0000000000000000     
   9.8050378817240986        9.9749979191089970        0.0000000000000000     
  -7.5958342287298422        12.263041237887014        0.0000000000000000     
  -4.9926111030548350        12.948973296088299        0.0000000000000000     
  -1.9618755790899804        12.974859011927657        0.0000000000000000     
   1.0054555781170140        12.998101556059595        0.0000000000000000     
   3.9961658788784185        13.036769565639521        0.0000000000000000     
   7.0509299573239081        13.301790985739064        0.0000000000000000     
  -5.2548352458271479        15.934872483158811        0.0000000000000000     
  -1.8830005456064833        16.029163516261910        0.0000000000000000     
   3.9795798133383564        16.027421925174949        0.0000000000000000     
  -1.9954451274282241        18.933783972822813        0.0000000000000000     
  0.94147369305565087        18.921490277339529        0.0000000000000000     
   3.7022352979875031        18.952239244232107        0.0000000000000000     
  -1.9237337431368275        21.618157782317066        0.0000000000000000     
   1.0277683641592019        22.244156399063417        0.0000000000000000     
  -18.015619179826054       -3.4124122300898261        0.0000000000000000     
  -17.162385672898946       -3.4818596755429705        0.0000000000000000     
  -18.255125334322631       -4.1640531844510775        0.0000000000000000     
  -17.205933448358749       -4.2227997987756964        0.0000000000000000     
  -17.840738574140396       -2.7983993615952572        0.0000000000000000     
  -17.117529894455881       -2.7926393685604745        0.0000000000000000     
  -17.768790543291328       -2.3885830623388924        0.0000000000000000     
  -15.527221495205772       -3.4952167867248152        0.0000000000000000     
  -13.982877465624757       -3.4798734327573309        0.0000000000000000     
  -15.534889989327205       -2.0155998657900898        0.0000000000000000     
  -16.309902193070229       -4.2417011236411071        0.0000000000000000     
  -15.517428964512300       -4.2457524400987898        0.0000000000000000     
  -16.326254675207117       -3.4960338721224251        0.0000000000000000     
  -14.751087884514661       -4.2446812642355054        0.0000000000000000     
  -13.992214593787089       -4.2439438461715620        0.0000000000000000     
  -14.753085425903851       -3.4892605992626589        0.0000000000000000     
  -16.326319321691653       -2.7641248888736327        0.0000000000000000     
  -15.531527740640977       -2.7509727336495744        0.0000000000000000     
  -16.317909949426351       -2.0411403754567305        0.0000000000000000     
  -14.760843276638237       -2.7378888755697592        0.0000000000000000     
  -13.997065420372330       -2.7145391373811085        0.0000000000000000     
  -14.774409384611372       -1.9962931474443566        0.0000000000000000     
  -12.473688338256162       -3.5348513543707076        0.0000000000000000     
  -11.022122216408206       -3.5149683788502801        0.0000000000000000     
  -13.238132843309906       -4.2491281077356842        0.0000000000000000     
  -12.491575951648683       -4.2581796550407667        0.0000000000000000     
  -13.215421036674918       -3.4930116946697161        0.0000000000000000     
  -11.750198679113851       -4.2608415560443849        0.0000000000000000     
  -11.006173987645788       -4.2548817732139925        0.0000000000000000     
  -11.754081069792154       -3.5449415274211891        0.0000000000000000     
  -13.150043918352619       -2.6488834897972855        0.0000000000000000     
  -12.419234927449962       -2.8965849910731727        0.0000000000000000     
  -13.398790675858701       -1.9189614299949933        0.0000000000000000     
  -11.780966663686268       -2.9190064452408842        0.0000000000000000     
  -11.075644396053180       -2.7270492778803539        0.0000000000000000     
  -9.5115082376407880       -3.4950722095847322        0.0000000000000000     
  -8.0161177906132828       -3.3843548661461345        0.0000000000000000     
  -9.4689137315382403       -1.9228133742607434        0.0000000000000000     
  -10.256500825617136       -4.2478366670349033        0.0000000000000000     
  -9.5057220279545245       -4.2391431477777370        0.0000000000000000     
  -10.265597634811282       -3.4976793747076695        0.0000000000000000     
  -8.7559927371597652       -4.2232029245336697        0.0000000000000000     
  -8.0036574976664028       -4.2093615327768852        0.0000000000000000     
  -8.7717834228470259       -3.4435302772807113        0.0000000000000000     
  -10.283842459451119       -2.7568397554515207        0.0000000000000000     
  -9.4763223012787865       -2.7622804425368974        0.0000000000000000     
  -10.460441679375894       -1.9961979154248342        0.0000000000000000     
  -8.8406078241973649       -2.8459396442293166        0.0000000000000000     
  -6.4652450905915080       -3.4100303394505351        0.0000000000000000     
  -4.8438170655615025       -3.4189658252160573        0.0000000000000000     
  -6.6558370484446883       -1.6400372929218441        0.0000000000000000     
  -7.2461655847652109       -4.2072330824569502        0.0000000000000000     
  -6.4816381174743194       -4.2070859207010871        0.0000000000000000     
  -7.2450281171776982       -3.4031497296709872        0.0000000000000000     
  -5.7115134740622899       -4.2060089113006427        0.0000000000000000     
  -4.9503437449080652       -4.2172721565740163        0.0000000000000000     
  -5.6459996776670671       -3.3814032005678385        0.0000000000000000     
  -7.2000535426172965       -2.7692452253319266        0.0000000000000000     
  -6.5249780814578431       -2.5956510461509295        0.0000000000000000     
  -5.5779881799220199       -2.4834933773142769        0.0000000000000000     
  -3.4592509675186824       -3.5340344727700956        0.0000000000000000     
  -1.9971329762566410       -3.5125742868203536        0.0000000000000000     
  -3.5523588601191638       -2.1339697650882345        0.0000000000000000     
  -4.2103002549735304       -4.2387897675219053        0.0000000000000000     
  -3.4806247481362353       -4.2530091514475998        0.0000000000000000     
  -4.1361632945449109       -3.5023584607852110        0.0000000000000000     
  -2.7442944427116540       -4.2551943272791108        0.0000000000000000     
  -1.9988583613337381       -4.2535540304499069        0.0000000000000000     
  -2.7414162337774606       -3.5203920397933470        0.0000000000000000     
  -4.0273236267834633       -2.9593872855433196        0.0000000000000000     
  -3.4819110427032194       -2.8543422396832447        0.0000000000000000     
  -2.7438230947574413       -2.7931111810969540        0.0000000000000000     
  -1.9904115295427045       -2.7822580581688805        0.0000000000000000     
  -2.7354372382513810       -2.0462611907319119        0.0000000000000000     
 -0.50244877770041918       -3.5111908333225510        0.0000000000000000     
  0.99368949470713241       -3.5150205551335878        0.0000000000000000     
 -0.51890910932205547       -2.1126276108113289        0.0000000000000000     
  -1.2499491325941152       -4.2527995779938115        0.0000000000000000     
 -0.50071224978685536       -4.2526073244374416        0.0000000000000000     
  -1.2492524510153606       -3.5117509281921784        0.0000000000000000     
  0.24832285926843695       -4.2532924649706594        0.0000000000000000     
  0.99522534094843407       -4.2589342781593524        0.0000000000000000     
  0.24500992216588130       -3.5096874444605630        0.0000000000000000     
  -1.2456746075380525       -2.7890788444015402        0.0000000000000000     
 -0.50735432024277194       -2.7888369712533940        0.0000000000000000     
  -1.2342715666541264       -2.1092487017425068        0.0000000000000000     
  0.23420153408684613       -2.7766937034294257        0.0000000000000000     
  0.98742818064607674       -2.7680196538196364        0.0000000000000000     
  0.20304674964703617       -2.0680767795984774        0.0000000000000000     
   2.4494021628640752       -3.6393449714676134        0.0000000000000000     
   4.2521876097163087       -3.6758181816709281        0.0000000000000000     
   2.5848962414974070       -2.0524502348308933        0.0000000000000000     
   1.7292581067922974       -4.2806363434842947        0.0000000000000000     
   2.4114219222029014       -4.3406941765435691        0.0000000000000000     
   1.7361246705001878       -3.5458978988005994        0.0000000000000000     
   2.8744264130826349       -4.4478233727945495        0.0000000000000000     
   3.2216459171876850       -3.9138123453129832        0.0000000000000000     
   1.7545188504768450       -2.7881894639963747        0.0000000000000000     
   2.5360606845280094       -2.8632949149744831        0.0000000000000000     
   1.7516802002358596       -2.0108538220534036        0.0000000000000000     
   3.1569265481531081       -2.9951962441075919        0.0000000000000000     
   5.7377741570394036       -3.5482768484929039        0.0000000000000000     
   7.0387423807297527       -3.5452532059645239        0.0000000000000000     
   5.2884834030905505       -2.0566303375750481        0.0000000000000000     
   6.3206116353356618       -4.3649028323786805        0.0000000000000000     
   6.8322386355226064       -4.3535225179381074        0.0000000000000000     
   6.3395135242174554       -2.6977674286691768        0.0000000000000000     
   6.8606018933020829       -2.7665910873216459        0.0000000000000000     
   6.2418022247041609       -2.0153461287182046        0.0000000000000000     
   8.5163854168668216       -3.4943352879911611        0.0000000000000000     
   9.9625051244908516       -3.5051087681847850        0.0000000000000000     
   8.5037409048218571       -2.0402426882525178        0.0000000000000000     
   7.7890704907971298       -4.3820134100729149        0.0000000000000000     
   8.6030854995155437       -4.4227584202434711        0.0000000000000000     
   7.7230057565186740       -3.4904622654597555        0.0000000000000000     
   7.6220492049475421       -4.7404875876860704        0.0000000000000000     
   7.8293029709416508       -4.7176404367417941        0.0000000000000000     
   7.3980232867458309       -4.4724544441622376        0.0000000000000000     
   8.0308908944922823       -4.7470040389115624        0.0000000000000000     
   8.1787335001405541       -4.5022490989056898        0.0000000000000000     
   7.4061085093406254       -4.0052508300482490        0.0000000000000000     
   7.7360585462760687       -3.9630015222719681        0.0000000000000000     
   8.1673665349953133       -3.9264202207031511        0.0000000000000000     
   8.4876151308764296       -4.0011456855569607        0.0000000000000000     
   8.0730781348607863       -3.5618973309751318        0.0000000000000000     
   8.3332548396012527       -3.7028555405150025        0.0000000000000000     
   8.4921548129702433       -3.7242428184353682        0.0000000000000000     
   8.3061980977305137       -3.5320144066026935        0.0000000000000000     
   9.3084949800489820       -4.3014692241113881        0.0000000000000000     
   10.152760786317506       -4.3536461622246794        0.0000000000000000     
   9.2317503476031817       -3.4899858994454744        0.0000000000000000     
   9.1523549134293312       -4.7474749068410667        0.0000000000000000     
   9.3501005327774394       -4.7144147178359441        0.0000000000000000     
   8.9717343914215206       -4.5431279404712841        0.0000000000000000     
   9.5523513275349679       -4.7451501578497322        0.0000000000000000     
   9.7270479994167793       -4.5295919869601988        0.0000000000000000     
   8.8891114637196598       -3.9238565034057635        0.0000000000000000     
   9.2689586956306762       -3.9376485065091584        0.0000000000000000     
   8.8746757799994178       -3.4797673090920709        0.0000000000000000     
   8.7480448096782730       -4.1548773960852055        0.0000000000000000     
   8.9155036506814511       -4.1612698799000576        0.0000000000000000     
   8.7059082341160323       -3.9572854904673886        0.0000000000000000     
   9.0725862490055142       -4.1155269816265010        0.0000000000000000     
   9.0741394747638200       -3.9279578898408305        0.0000000000000000     
   8.6896807671849015       -3.7214093314943337        0.0000000000000000     
   8.8780686235310657       -3.7110314547502403        0.0000000000000000     
   8.6900003681762588       -3.5320044107418935        0.0000000000000000     
   9.0636717562713631       -3.7091919568722123        0.0000000000000000     
   9.2529596658220967       -3.7080214830508837        0.0000000000000000     
   9.0585761497354582       -3.5294377645871902        0.0000000000000000     
   9.6569311069585382       -3.9100519692486930        0.0000000000000000     
   10.122153091467130       -3.8908381855651828        0.0000000000000000     
   9.6537154324787302       -3.5005878009323355        0.0000000000000000     
   9.4987148154443926       -4.1097638167012063        0.0000000000000000     
   9.6843023385702605       -4.1426039456072035        0.0000000000000000     
   9.4651173929553956       -3.9233508417208891        0.0000000000000000     
   9.8691412464651140       -4.1164388787634847        0.0000000000000000     
   9.8591479020751809       -3.9090110588155254        0.0000000000000000     
   9.4496899048852505       -3.7041334478614516        0.0000000000000000     
   9.6523961403009686       -3.7044108937458384        0.0000000000000000     
   9.4427082703518135       -3.4999667559452190        0.0000000000000000     
   9.8140377494914439       -3.7206656526133948        0.0000000000000000     
   7.7881531319519581       -2.7516215441049567        0.0000000000000000     
   8.5127375814790369       -2.7698909120261495        0.0000000000000000     
   7.7163417454184966       -1.9482870668604262        0.0000000000000000     
   7.3881986120580647       -3.0916869817634267        0.0000000000000000     
   7.6603655859663755       -3.1200135067574108        0.0000000000000000     
   7.3564643008262429       -2.7645285139943723        0.0000000000000000     
   8.1115406433122601       -3.1273819038736215        0.0000000000000000     
   8.5239681694835401       -3.1272179235744559        0.0000000000000000     
   8.0939508852451549       -2.7502285276495040        0.0000000000000000     
   7.9265446724199649       -3.2933817848750628        0.0000000000000000     
   8.0913289828828283       -3.3205581559157005        0.0000000000000000     
   7.9187879499199276       -3.1233086319769305        0.0000000000000000     
   8.2994100571911495       -3.3225526015810209        0.0000000000000000     
   8.4750420738455592       -3.3147737394455605        0.0000000000000000     
   8.3032878373519345       -3.1287026525558916        0.0000000000000000     
   7.9464113352505068       -2.9579908704235534        0.0000000000000000     
   8.1040378651189364       -2.9420796877090649        0.0000000000000000     
   8.3024664661530903       -2.9419223793035756        0.0000000000000000     
   8.4739421609390586       -2.9429876961724379        0.0000000000000000     
   8.3028005168302599       -2.7534253296163866        0.0000000000000000     
   7.3904055198066496       -2.4322013843890047        0.0000000000000000     
   7.6618856580731958       -2.3803752973897518        0.0000000000000000     
   8.1166962243575895       -2.3666290938842618        0.0000000000000000     
   8.5030381518631000       -2.3498901802414154        0.0000000000000000     
   8.1329885435154985       -1.8974547233848094        0.0000000000000000     
   7.9477586059129992       -2.5392427684450194        0.0000000000000000     
   8.1057283597369967       -2.5555555677848614        0.0000000000000000     
   7.9228146838076468       -2.3656485905500966        0.0000000000000000     
   8.3061479736890274       -2.5581821644344456        0.0000000000000000     
   8.5030066163555809       -2.5598660932687487        0.0000000000000000     
   8.3057832162963923       -2.3576847326907391        0.0000000000000000     
   7.9373502991507241       -2.1834972551243279        0.0000000000000000     
   8.1173769300423384       -2.1702285396291661        0.0000000000000000     
   8.2899256306888134       -2.1981905599221916        0.0000000000000000     
   9.2538476380410817       -2.7461519121793576        0.0000000000000000     
   9.9830108951525425       -2.7594858412009931        0.0000000000000000     
   9.2482948301048644       -2.0127658660944463        0.0000000000000000     
   8.8731837364687305       -3.1268307310832006        0.0000000000000000     
   9.2533755784887255       -3.1275109959832577        0.0000000000000000     
   8.8725010576625127       -2.7466415014232095        0.0000000000000000     
   8.6875135262639667       -3.3130344199062791        0.0000000000000000     
   8.8741145993173358       -3.3264006340281838        0.0000000000000000     
   8.6741126375454272       -3.1261257986472475        0.0000000000000000     
   8.6062943426128218       -3.3961464423301631        0.0000000000000000     
   8.6894896982658825       -3.4053313991877050        0.0000000000000000     
   8.5966113078179873       -3.3120663061416571        0.0000000000000000     
   8.7707238278663198       -3.3964264246281877        0.0000000000000000     
   8.7782959274373908       -3.3199561941322675        0.0000000000000000     
   8.6046929062328328       -3.2299428166948090        0.0000000000000000     
   8.6805070121034653       -3.2219907381623698        0.0000000000000000     
   8.7774764564639671       -3.2226359044954620        0.0000000000000000     
   8.8735716322573737       -3.2237958500899895        0.0000000000000000     
   8.7762879578939792       -3.1264719392681881        0.0000000000000000     
   9.0625406334004381       -3.3151116767769420        0.0000000000000000     
   9.2690456803913861       -3.3320176095252196        0.0000000000000000     
   9.0633637992881262       -3.1268396870321502        0.0000000000000000     
   8.9782018656369313       -3.3968884615582473        0.0000000000000000     
   9.0597375392635406       -3.4068835337071297        0.0000000000000000     
   8.9699508378506856       -3.3205262313920283        0.0000000000000000     
   9.1428858830547508       -3.4004023126029024        0.0000000000000000     
   9.1569198134010517       -3.3229053537239195        0.0000000000000000     
   8.9687712553202150       -3.2229908187145555        0.0000000000000000     
   9.0635665532079930       -3.2223544706122600        0.0000000000000000     
   8.9684664631607198       -3.1268271133032646        0.0000000000000000     
   9.1603342085806201       -3.2236568050549099        0.0000000000000000     
   9.2605214274068590       -3.2218468180851052        0.0000000000000000     
   9.1586828883460800       -3.1270817373948745        0.0000000000000000     
   8.6850440737540460       -2.9375243331885641        0.0000000000000000     
   8.8731666037533365       -2.9366393513160927        0.0000000000000000     
   8.6684674360275800       -2.7313238134002469        0.0000000000000000     
   8.6038297447459815       -3.0221039486209831        0.0000000000000000     
   8.6798018009710756       -3.0301893916771037        0.0000000000000000     
   8.5938692717594574       -2.9405999158807954        0.0000000000000000     
   8.7770680903523868       -3.0312525666663346        0.0000000000000000     
   8.8731815445622964       -3.0315376925440867        0.0000000000000000     
   8.7776838505553787       -2.9364503160806832        0.0000000000000000     
   8.6001684906195095       -2.8574017926172575        0.0000000000000000     
   8.6773446394920608       -2.8432222523316919        0.0000000000000000     
   8.7763916674207181       -2.8396991777198601        0.0000000000000000     
   8.8729255738318979       -2.8413237784021113        0.0000000000000000     
   8.7782332149260860       -2.7395584302647684        0.0000000000000000     
   9.0626515149571478       -2.9373486268804925        0.0000000000000000     
   9.2528594920102769       -2.9374035943444845        0.0000000000000000     
   9.0625972959888799       -2.7471411028235471        0.0000000000000000     
   8.9682827591799885       -3.0317185083437574        0.0000000000000000     
   9.0628908891984068       -3.0318640478922005        0.0000000000000000     
   8.9681367483269696       -2.9371096615090275        0.0000000000000000     
   9.1575393687724436       -3.0321470612085699        0.0000000000000000     
   9.2528514921151412       -3.0331243537862447        0.0000000000000000     
   9.1572845833437402       -2.9374100629613813        0.0000000000000000     
   8.9678538934256053       -2.8424619292230004        0.0000000000000000     
   9.0625901035063432       -2.8427156517664627        0.0000000000000000     
   8.9668782816898887       -2.7471535297418748        0.0000000000000000     
   9.1575005175447135       -2.8424994864906439        0.0000000000000000     
   9.2532150762127685       -2.8414472095767347        0.0000000000000000     
   9.1585536375122025       -2.7467839237058684        0.0000000000000000     
   9.6161484793638152       -3.1044724589461499        0.0000000000000000     
   10.068791507400386       -3.1357610819178467        0.0000000000000000     
   9.6410278642453555       -2.7709328542470586        0.0000000000000000     
   9.4262763181730271       -3.2945557335391142        0.0000000000000000     
   9.6372171099509298       -3.3031173179064819        0.0000000000000000     
   9.4607465534620196       -3.1413538426089187        0.0000000000000000     
   9.3383605870253277       -3.2109890652609199        0.0000000000000000     
   9.3488392222377676       -3.1340257691946150        0.0000000000000000     
   9.7947340006486030       -3.2882265834725071        0.0000000000000000     
   9.8173180686611836       -3.1230986475671139        0.0000000000000000     
   9.4461911630720046       -2.9375822368734035        0.0000000000000000     
   9.6720272391899940       -2.9418010467654256        0.0000000000000000     
   9.4668588873171284       -2.7313558380259786        0.0000000000000000     
   9.3505305174638700       -3.0346233618247100        0.0000000000000000     
   9.4515764941983189       -3.0315989362896736        0.0000000000000000     
   9.3501096315999686       -2.9374118589122378        0.0000000000000000     
   9.5313317336469350       -3.0188447080804881        0.0000000000000000     
   9.5432952881657300       -2.9382335352963755        0.0000000000000000     
   9.3519903501121764       -2.8398396373920427        0.0000000000000000     
   9.4559758836312309       -2.8431284192821260        0.0000000000000000     
   9.3506303927250887       -2.7391574154994935        0.0000000000000000     
   9.5381897948024470       -2.8569583907976992        0.0000000000000000     
   9.8059957409229241       -2.9609155998470498        0.0000000000000000     
   8.8959839859878453       -2.3840022922816040        0.0000000000000000     
   9.2300356980240430       -2.3583610974720375        0.0000000000000000     
   8.8720846657120802       -1.9264746922476412        0.0000000000000000     
   8.7060980838886550       -2.5743868833272985        0.0000000000000000     
   8.8587834134893839       -2.5394232930041190        0.0000000000000000     
   8.6981126498285928       -2.3638804645976932        0.0000000000000000     
   8.7890985028220499       -2.6617497538437997        0.0000000000000000     
   8.8660171314203158       -2.6512242698408373        0.0000000000000000     
   9.0624406261802406       -2.5538001663334380        0.0000000000000000     
   9.2687654714687326       -2.5330483865906506        0.0000000000000000     
   9.0589538263357667       -2.3275830225562504        0.0000000000000000     
   8.9653863450780822       -2.6494861339467337        0.0000000000000000     
   9.0625934447371606       -2.6498900601310238        0.0000000000000000     
   8.9684366260731245       -2.5484545551607516        0.0000000000000000     
   9.1601702099922981       -2.6480004825284942        0.0000000000000000     
   9.2608531410965202       -2.6493591524527846        0.0000000000000000     
   9.1569379567828868       -2.5439727006531698        0.0000000000000000     
   8.9812379578962958       -2.4686832046271152        0.0000000000000000     
   9.0619021414270264       -2.4566422742535599        0.0000000000000000     
   9.1431877722220847       -2.4617045632702137        0.0000000000000000     
   8.7137006997554121       -2.2061837551380532        0.0000000000000000     
   8.8788941682747193       -2.1823546494350046        0.0000000000000000     
   9.0407543202394329       -2.1930597505243337        0.0000000000000000     
   9.6242826285382286       -2.3758242834680607        0.0000000000000000     
   10.067250316757535       -2.3834296475893066        0.0000000000000000     
   9.6237913603769023       -1.9303471372344516        0.0000000000000000     
   9.4268127894800795       -2.5732113099138276        0.0000000000000000     
   9.6397311979582838       -2.5636267862148880        0.0000000000000000     
   9.4370456700811154       -2.3598503157476918        0.0000000000000000     
   9.3394785847130990       -2.6605213566700625        0.0000000000000000     
   9.7999089809029503       -2.5474672997986190        0.0000000000000000     
   9.8138808427239077       -2.3810280980199430        0.0000000000000000     
   9.4541268075359994       -2.1991396085472208        0.0000000000000000     
   9.6204152170829218       -2.1856655294828897        0.0000000000000000     
   9.7900388028167811       -2.2105648027603828        0.0000000000000000     
   11.500587165062644       -3.6227085874064784        0.0000000000000000     
   13.398893424936860       -3.6400706316548863        0.0000000000000000     
   11.656160893847586       -2.0495749415984554        0.0000000000000000     
   10.739161259880845       -4.2018822013477415        0.0000000000000000     
   11.448773873456302       -4.3222022254054782        0.0000000000000000     
   10.858578672175412       -3.5258140972576153        0.0000000000000000     
   10.380739227292441       -3.8355908933096075        0.0000000000000000     
   10.386272501474894       -3.5030213541421418        0.0000000000000000     
   11.948395187127593       -4.4406052390186588        0.0000000000000000     