  TITLE = "SEM Quad mesh" 
  VARIABLES = "x", "y", "z", "material ID"
 ZONE I=           5 ,J=           5 , F=POINT
 -0.46025E+01 -0.12661E+02  0.00000E+00 1
 -0.45094E+01 -0.12665E+02  0.00000E+00 1
 -0.42845E+01 -0.12674E+02  0.00000E+00 1
 -0.40597E+01 -0.12683E+02  0.00000E+00 1
 -0.39665E+01 -0.12687E+02  0.00000E+00 1
 -0.46647E+01 -0.12572E+02  0.00000E+00 1
 -0.45627E+01 -0.12572E+02  0.00000E+00 1
 -0.43164E+01 -0.12571E+02  0.00000E+00 1
 -0.40700E+01 -0.12571E+02  0.00000E+00 1
 -0.39680E+01 -0.12571E+02  0.00000E+00 1
 -0.48148E+01 -0.12357E+02  0.00000E+00 1
 -0.46913E+01 -0.12347E+02  0.00000E+00 1
 -0.43932E+01 -0.12324E+02  0.00000E+00 1
 -0.40951E+01 -0.12301E+02  0.00000E+00 1
 -0.39716E+01 -0.12292E+02  0.00000E+00 1
 -0.49649E+01 -0.12142E+02  0.00000E+00 1
 -0.48199E+01 -0.12123E+02  0.00000E+00 1
 -0.44700E+01 -0.12077E+02  0.00000E+00 1
 -0.41201E+01 -0.12031E+02  0.00000E+00 1
 -0.39752E+01 -0.12012E+02  0.00000E+00 1
 -0.50270E+01 -0.12053E+02  0.00000E+00 1
 -0.48732E+01 -0.12030E+02  0.00000E+00 1
 -0.45018E+01 -0.11974E+02  0.00000E+00 1
 -0.41305E+01 -0.11919E+02  0.00000E+00 1
 -0.39767E+01 -0.11896E+02  0.00000E+00 1
 ZONE I=           5 ,J=           5 , F=POINT
 -0.39665E+01 -0.12687E+02  0.00000E+00 1
 -0.38325E+01 -0.12700E+02  0.00000E+00 1
 -0.35089E+01 -0.12733E+02  0.00000E+00 1
 -0.31853E+01 -0.12766E+02  0.00000E+00 1
 -0.30513E+01 -0.12780E+02  0.00000E+00 1
 -0.39680E+01 -0.12571E+02  0.00000E+00 1
 -0.38329E+01 -0.12583E+02  0.00000E+00 1
 -0.35069E+01 -0.12611E+02  0.00000E+00 1
 -0.31808E+01 -0.12639E+02  0.00000E+00 1
 -0.30457E+01 -0.12651E+02  0.00000E+00 1
 -0.39716E+01 -0.12292E+02  0.00000E+00 1
 -0.38340E+01 -0.12299E+02  0.00000E+00 1
 -0.35019E+01 -0.12316E+02  0.00000E+00 1
 -0.31698E+01 -0.12333E+02  0.00000E+00 1
 -0.30323E+01 -0.12340E+02  0.00000E+00 1
 -0.39752E+01 -0.12012E+02  0.00000E+00 1
 -0.38351E+01 -0.12014E+02  0.00000E+00 1
 -0.34970E+01 -0.12020E+02  0.00000E+00 1
 -0.31589E+01 -0.12026E+02  0.00000E+00 1
 -0.30188E+01 -0.12029E+02  0.00000E+00 1
 -0.39767E+01 -0.11896E+02  0.00000E+00 1
 -0.38356E+01 -0.11897E+02  0.00000E+00 1
 -0.34950E+01 -0.11898E+02  0.00000E+00 1
 -0.31543E+01 -0.11899E+02  0.00000E+00 1
 -0.30132E+01 -0.11900E+02  0.00000E+00 1
 ZONE I=           5 ,J=           5 , F=POINT
 -0.30513E+01 -0.12780E+02  0.00000E+00 1
 -0.29062E+01 -0.12794E+02  0.00000E+00 1
 -0.25558E+01 -0.12828E+02  0.00000E+00 1
 -0.22054E+01 -0.12863E+02  0.00000E+00 1
 -0.20603E+01 -0.12877E+02  0.00000E+00 1
 -0.30457E+01 -0.12651E+02  0.00000E+00 1
 -0.29006E+01 -0.12664E+02  0.00000E+00 1
 -0.25503E+01 -0.12695E+02  0.00000E+00 1
 -0.22000E+01 -0.12726E+02  0.00000E+00 1
 -0.20549E+01 -0.12739E+02  0.00000E+00 1
 -0.30323E+01 -0.12340E+02  0.00000E+00 1
 -0.28872E+01 -0.12349E+02  0.00000E+00 1
 -0.25371E+01 -0.12373E+02  0.00000E+00 1
 -0.21870E+01 -0.12396E+02  0.00000E+00 1
 -0.20419E+01 -0.12406E+02  0.00000E+00 1
 -0.30188E+01 -0.12029E+02  0.00000E+00 1
 -0.28738E+01 -0.12035E+02  0.00000E+00 1
 -0.25239E+01 -0.12051E+02  0.00000E+00 1
 -0.21739E+01 -0.12066E+02  0.00000E+00 1
 -0.20289E+01 -0.12072E+02  0.00000E+00 1
 -0.30132E+01 -0.11900E+02  0.00000E+00 1
 -0.28683E+01 -0.11905E+02  0.00000E+00 1
 -0.25184E+01 -0.11917E+02  0.00000E+00 1
 -0.21685E+01 -0.11929E+02  0.00000E+00 1
 -0.20236E+01 -0.11934E+02  0.00000E+00 1
 ZONE I=           5 ,J=           5 , F=POINT
 -0.20603E+01 -0.12877E+02  0.00000E+00 1
 -0.19104E+01 -0.12887E+02  0.00000E+00 1
 -0.15486E+01 -0.12911E+02  0.00000E+00 1
 -0.11868E+01 -0.12935E+02  0.00000E+00 1
 -0.10369E+01 -0.12945E+02  0.00000E+00 1
 -0.20549E+01 -0.12739E+02  0.00000E+00 1
 -0.19054E+01 -0.12748E+02  0.00000E+00 1
 -0.15444E+01 -0.12770E+02  0.00000E+00 1
 -0.11834E+01 -0.12792E+02  0.00000E+00 1
 -0.10338E+01 -0.12801E+02  0.00000E+00 1
 -0.20419E+01 -0.12406E+02  0.00000E+00 1
 -0.18932E+01 -0.12413E+02  0.00000E+00 1
 -0.15341E+01 -0.12430E+02  0.00000E+00 1
 -0.11751E+01 -0.12447E+02  0.00000E+00 1
 -0.10263E+01 -0.12454E+02  0.00000E+00 1
 -0.20289E+01 -0.12072E+02  0.00000E+00 1
 -0.18810E+01 -0.12077E+02  0.00000E+00 1
 -0.15239E+01 -0.12090E+02  0.00000E+00 1
 -0.11668E+01 -0.12102E+02  0.00000E+00 1
 -0.10188E+01 -0.12107E+02  0.00000E+00 1
 -0.20236E+01 -0.11934E+02  0.00000E+00 1
 -0.18760E+01 -0.11939E+02  0.00000E+00 1
 -0.15196E+01 -0.11949E+02  0.00000E+00 1
 -0.11633E+01 -0.11959E+02  0.00000E+00 1
 -0.10157E+01 -0.11964E+02  0.00000E+00 1
 ZONE I=           5 ,J=           5 , F=POINT
 -0.10369E+01 -0.12945E+02  0.00000E+00 1
 -0.88506E+00 -0.12948E+02  0.00000E+00 1
 -0.51842E+00 -0.12957E+02  0.00000E+00 1
 -0.15177E+00 -0.12965E+02  0.00000E+00 1
  0.98375E-04 -0.12968E+02  0.00000E+00 1
 -0.10338E+01 -0.12801E+02  0.00000E+00 1
 -0.88241E+00 -0.12804E+02  0.00000E+00 1
 -0.51686E+00 -0.12812E+02  0.00000E+00 1
 -0.15131E+00 -0.12820E+02  0.00000E+00 1
  0.10822E-03 -0.12823E+02  0.00000E+00 1
 -0.10263E+01 -0.12454E+02  0.00000E+00 1
 -0.87601E+00 -0.12457E+02  0.00000E+00 1
 -0.51310E+00 -0.12463E+02  0.00000E+00 1
 -0.15019E+00 -0.12469E+02  0.00000E+00 1
  0.13199E-03 -0.12471E+02  0.00000E+00 1
 -0.10188E+01 -0.12107E+02  0.00000E+00 1
 -0.86961E+00 -0.12109E+02  0.00000E+00 1
 -0.50934E+00 -0.12114E+02  0.00000E+00 1
 -0.14907E+00 -0.12118E+02  0.00000E+00 1
  0.15577E-03 -0.12120E+02  0.00000E+00 1
 -0.10157E+01 -0.11964E+02  0.00000E+00 1
 -0.86695E+00 -0.11965E+02  0.00000E+00 1
 -0.50778E+00 -0.11969E+02  0.00000E+00 1
 -0.14861E+00 -0.11973E+02  0.00000E+00 1
  0.16561E-03 -0.11974E+02  0.00000E+00 1
 ZONE I=           5 ,J=           5 , F=POINT
  0.98375E-04 -0.12968E+02  0.00000E+00 1
  0.15202E+00 -0.12965E+02  0.00000E+00 1
  0.51881E+00 -0.12956E+02  0.00000E+00 1
  0.88559E+00 -0.12948E+02  0.00000E+00 1
  0.10375E+01 -0.12944E+02  0.00000E+00 1
  0.10822E-03 -0.12823E+02  0.00000E+00 1
  0.15158E+00 -0.12820E+02  0.00000E+00 1
  0.51728E+00 -0.12812E+02  0.00000E+00 1
  0.88298E+00 -0.12804E+02  0.00000E+00 1
  0.10345E+01 -0.12801E+02  0.00000E+00 1
  0.13199E-03 -0.12471E+02  0.00000E+00 1
  0.15052E+00 -0.12469E+02  0.00000E+00 1
  0.51360E+00 -0.12463E+02  0.00000E+00 1
  0.87668E+00 -0.12456E+02  0.00000E+00 1
  0.10271E+01 -0.12454E+02  0.00000E+00 1
  0.15577E-03 -0.12120E+02  0.00000E+00 1
  0.14946E+00 -0.12118E+02  0.00000E+00 1
  0.50992E+00 -0.12113E+02  0.00000E+00 1
  0.87037E+00 -0.12109E+02  0.00000E+00 1
  0.10197E+01 -0.12107E+02  0.00000E+00 1
  0.16561E-03 -0.11974E+02  0.00000E+00 1
  0.14902E+00 -0.11973E+02  0.00000E+00 1
  0.50839E+00 -0.11969E+02  0.00000E+00 1
  0.86776E+00 -0.11965E+02  0.00000E+00 1
  0.10166E+01 -0.11963E+02  0.00000E+00 1
 ZONE I=           5 ,J=           5 , F=POINT
  0.10375E+01 -0.12944E+02  0.00000E+00 1
  0.11877E+01 -0.12934E+02  0.00000E+00 1
  0.15502E+01 -0.12910E+02  0.00000E+00 1
  0.19128E+01 -0.12886E+02  0.00000E+00 1
  0.20629E+01 -0.12876E+02  0.00000E+00 1
  0.10345E+01 -0.12801E+02  0.00000E+00 1
  0.11843E+01 -0.12792E+02  0.00000E+00 1
  0.15461E+01 -0.12769E+02  0.00000E+00 1
  0.19079E+01 -0.12747E+02  0.00000E+00 1
  0.20577E+01 -0.12738E+02  0.00000E+00 1
  0.10271E+01 -0.12454E+02  0.00000E+00 1
  0.11762E+01 -0.12447E+02  0.00000E+00 1
  0.15361E+01 -0.12429E+02  0.00000E+00 1
  0.18961E+01 -0.12411E+02  0.00000E+00 1
  0.20452E+01 -0.12404E+02  0.00000E+00 1
  0.10197E+01 -0.12107E+02  0.00000E+00 1
  0.11680E+01 -0.12101E+02  0.00000E+00 1
  0.15261E+01 -0.12089E+02  0.00000E+00 1
  0.18843E+01 -0.12076E+02  0.00000E+00 1
  0.20326E+01 -0.12071E+02  0.00000E+00 1
  0.10166E+01 -0.11963E+02  0.00000E+00 1
  0.11646E+01 -0.11959E+02  0.00000E+00 1
  0.15220E+01 -0.11948E+02  0.00000E+00 1
  0.18794E+01 -0.11937E+02  0.00000E+00 1
  0.20274E+01 -0.11932E+02  0.00000E+00 1
 ZONE I=           5 ,J=           5 , F=POINT
  0.20629E+01 -0.12876E+02  0.00000E+00 1
  0.22091E+01 -0.12861E+02  0.00000E+00 1
  0.25621E+01 -0.12825E+02  0.00000E+00 1
  0.29151E+01 -0.12790E+02  0.00000E+00 1
  0.30613E+01 -0.12775E+02  0.00000E+00 1
  0.20577E+01 -0.12738E+02  0.00000E+00 1
  0.22040E+01 -0.12724E+02  0.00000E+00 1
  0.25571E+01 -0.12692E+02  0.00000E+00 1
  0.29101E+01 -0.12659E+02  0.00000E+00 1
  0.30564E+01 -0.12646E+02  0.00000E+00 1
  0.20452E+01 -0.12404E+02  0.00000E+00 1
  0.21915E+01 -0.12394E+02  0.00000E+00 1
  0.25448E+01 -0.12369E+02  0.00000E+00 1
  0.28981E+01 -0.12344E+02  0.00000E+00 1
  0.30444E+01 -0.12334E+02  0.00000E+00 1
  0.20326E+01 -0.12071E+02  0.00000E+00 1
  0.21790E+01 -0.12063E+02  0.00000E+00 1
  0.25326E+01 -0.12046E+02  0.00000E+00 1
  0.28861E+01 -0.12029E+02  0.00000E+00 1
  0.30325E+01 -0.12022E+02  0.00000E+00 1
  0.20274E+01 -0.11932E+02  0.00000E+00 1
  0.21739E+01 -0.11927E+02  0.00000E+00 1
  0.25275E+01 -0.11913E+02  0.00000E+00 1
  0.28811E+01 -0.11899E+02  0.00000E+00 1
  0.30275E+01 -0.11893E+02  0.00000E+00 1
 ZONE I=           5 ,J=           5 , F=POINT
  0.30613E+01 -0.12775E+02  0.00000E+00 1
  0.31986E+01 -0.12760E+02  0.00000E+00 1
  0.35299E+01 -0.12723E+02  0.00000E+00 1
  0.38612E+01 -0.12687E+02  0.00000E+00 1
  0.39984E+01 -0.12672E+02  0.00000E+00 1
  0.30564E+01 -0.12646E+02  0.00000E+00 1
  0.31949E+01 -0.12632E+02  0.00000E+00 1
  0.35291E+01 -0.12600E+02  0.00000E+00 1
  0.38634E+01 -0.12568E+02  0.00000E+00 1
  0.40019E+01 -0.12555E+02  0.00000E+00 1
  0.30444E+01 -0.12334E+02  0.00000E+00 1
  0.31859E+01 -0.12325E+02  0.00000E+00 1
  0.35273E+01 -0.12303E+02  0.00000E+00 1
  0.38688E+01 -0.12282E+02  0.00000E+00 1
  0.40102E+01 -0.12273E+02  0.00000E+00 1
  0.30325E+01 -0.12022E+02  0.00000E+00 1
  0.31769E+01 -0.12017E+02  0.00000E+00 1
  0.35255E+01 -0.12006E+02  0.00000E+00 1
  0.38741E+01 -0.11995E+02  0.00000E+00 1
  0.40186E+01 -0.11991E+02  0.00000E+00 1
  0.30275E+01 -0.11893E+02  0.00000E+00 1
  0.31732E+01 -0.11890E+02  0.00000E+00 1
  0.35248E+01 -0.11883E+02  0.00000E+00 1
  0.38764E+01 -0.11877E+02  0.00000E+00 1
  0.40220E+01 -0.11874E+02  0.00000E+00 1
 ZONE I=           5 ,J=           5 , F=POINT
  0.39984E+01 -0.12672E+02  0.00000E+00 1
  0.40987E+01 -0.12664E+02  0.00000E+00 1
  0.43408E+01 -0.12647E+02  0.00000E+00 1
  0.45828E+01 -0.12630E+02  0.00000E+00 1
  0.46831E+01 -0.12623E+02  0.00000E+00 1
  0.40019E+01 -0.12555E+02  0.00000E+00 1
  0.41120E+01 -0.12551E+02  0.00000E+00 1
  0.43778E+01 -0.12542E+02  0.00000E+00 1
  0.46437E+01 -0.12533E+02  0.00000E+00 1
  0.47538E+01 -0.12530E+02  0.00000E+00 1
  0.40102E+01 -0.12273E+02  0.00000E+00 1
  0.41441E+01 -0.12277E+02  0.00000E+00 1
  0.44673E+01 -0.12288E+02  0.00000E+00 1
  0.47906E+01 -0.12299E+02  0.00000E+00 1
  0.49244E+01 -0.12304E+02  0.00000E+00 1
  0.40186E+01 -0.11991E+02  0.00000E+00 1
  0.41762E+01 -0.12004E+02  0.00000E+00 1
  0.45568E+01 -0.12034E+02  0.00000E+00 1
  0.49374E+01 -0.12065E+02  0.00000E+00 1
  0.50951E+01 -0.12078E+02  0.00000E+00 1
  0.40220E+01 -0.11874E+02  0.00000E+00 1
  0.41895E+01 -0.11890E+02  0.00000E+00 1
  0.45939E+01 -0.11929E+02  0.00000E+00 1
  0.49983E+01 -0.11968E+02  0.00000E+00 1
  0.51658E+01 -0.11984E+02  0.00000E+00 1
 ZONE I=           5 ,J=           5 , F=POINT
 -0.66627E+01 -0.11705E+02  0.00000E+00 1
 -0.65710E+01 -0.11720E+02  0.00000E+00 1
 -0.63497E+01 -0.11754E+02  0.00000E+00 1
 -0.61284E+01 -0.11788E+02  0.00000E+00 1
 -0.60367E+01 -0.11803E+02  0.00000E+00 1
 -0.67165E+01 -0.11615E+02  0.00000E+00 1
 -0.66160E+01 -0.11624E+02  0.00000E+00 1
 -0.63735E+01 -0.11648E+02  0.00000E+00 1
 -0.61310E+01 -0.11671E+02  0.00000E+00 1
 -0.60306E+01 -0.11681E+02  0.00000E+00 1
 -0.68463E+01 -0.11396E+02  0.00000E+00 1
 -0.67247E+01 -0.11394E+02  0.00000E+00 1
 -0.64310E+01 -0.11391E+02  0.00000E+00 1
 -0.61373E+01 -0.11388E+02  0.00000E+00 1
 -0.60157E+01 -0.11387E+02  0.00000E+00 1
 -0.69762E+01 -0.11177E+02  0.00000E+00 1
 -0.68333E+01 -0.11165E+02  0.00000E+00 1
 -0.64885E+01 -0.11135E+02  0.00000E+00 1
 -0.61437E+01 -0.11105E+02  0.00000E+00 1
 -0.60008E+01 -0.11093E+02  0.00000E+00 1
 -0.70300E+01 -0.11086E+02  0.00000E+00 1
 -0.68783E+01 -0.11069E+02  0.00000E+00 1
 -0.65123E+01 -0.11028E+02  0.00000E+00 1
 -0.61463E+01 -0.10988E+02  0.00000E+00 1
 -0.59947E+01 -0.10971E+02  0.00000E+00 1
 ZONE I=           5 ,J=           5 , F=POINT
 -0.60367E+01 -0.11803E+02  0.00000E+00 1
 -0.58888E+01 -0.11839E+02  0.00000E+00 1
 -0.55319E+01 -0.11928E+02  0.00000E+00 1
 -0.51749E+01 -0.12016E+02  0.00000E+00 1
 -0.50270E+01 -0.12053E+02  0.00000E+00 1
 -0.60306E+01 -0.11681E+02  0.00000E+00 1
 -0.58832E+01 -0.11712E+02  0.00000E+00 1
 -0.55276E+01 -0.11788E+02  0.00000E+00 1
 -0.51720E+01 -0.11865E+02  0.00000E+00 1
 -0.50247E+01 -0.11896E+02  0.00000E+00 1
 -0.60157E+01 -0.11387E+02  0.00000E+00 1
 -0.58697E+01 -0.11406E+02  0.00000E+00 1
 -0.55174E+01 -0.11453E+02  0.00000E+00 1
 -0.51651E+01 -0.11499E+02  0.00000E+00 1
 -0.50191E+01 -0.11518E+02  0.00000E+00 1
 -0.60008E+01 -0.11093E+02  0.00000E+00 1
 -0.58562E+01 -0.11100E+02  0.00000E+00 1
 -0.55072E+01 -0.11117E+02  0.00000E+00 1
 -0.51581E+01 -0.11134E+02  0.00000E+00 1
 -0.50136E+01 -0.11141E+02  0.00000E+00 1
 -0.59947E+01 -0.10971E+02  0.00000E+00 1
 -0.58507E+01 -0.10973E+02  0.00000E+00 1
 -0.55030E+01 -0.10977E+02  0.00000E+00 1
 -0.51553E+01 -0.10982E+02  0.00000E+00 1
 -0.50113E+01 -0.10984E+02  0.00000E+00 1
 ZONE I=           5 ,J=           5 , F=POINT
 -0.50270E+01 -0.12053E+02  0.00000E+00 1
 -0.48732E+01 -0.12030E+02  0.00000E+00 1
 -0.45018E+01 -0.11974E+02  0.00000E+00 1
 -0.41305E+01 -0.11919E+02  0.00000E+00 1
 -0.39767E+01 -0.11896E+02  0.00000E+00 1
 -0.50247E+01 -0.11896E+02  0.00000E+00 1
 -0.48719E+01 -0.11877E+02  0.00000E+00 1
 -0.45028E+01 -0.11829E+02  0.00000E+00 1
 -0.41338E+01 -0.11782E+02  0.00000E+00 1
 -0.39810E+01 -0.11762E+02  0.00000E+00 1
 -0.50191E+01 -0.11518E+02  0.00000E+00 1
 -0.48686E+01 -0.11507E+02  0.00000E+00 1
 -0.45052E+01 -0.11478E+02  0.00000E+00 1
 -0.41418E+01 -0.11449E+02  0.00000E+00 1
 -0.39913E+01 -0.11438E+02  0.00000E+00 1
 -0.50136E+01 -0.11141E+02  0.00000E+00 1
 -0.48654E+01 -0.11137E+02  0.00000E+00 1
 -0.45076E+01 -0.11127E+02  0.00000E+00 1
 -0.41498E+01 -0.11117E+02  0.00000E+00 1
 -0.40016E+01 -0.11113E+02  0.00000E+00 1
 -0.50113E+01 -0.10984E+02  0.00000E+00 1
 -0.48640E+01 -0.10983E+02  0.00000E+00 1
 -0.45086E+01 -0.10982E+02  0.00000E+00 1
 -0.41532E+01 -0.10980E+02  0.00000E+00 1
 -0.40059E+01 -0.10979E+02  0.00000E+00 1
 ZONE I=           5 ,J=           5 , F=POINT
 -0.39767E+01 -0.11896E+02  0.00000E+00 1
 -0.38356E+01 -0.11897E+02  0.00000E+00 1
 -0.34950E+01 -0.11898E+02  0.00000E+00 1
 -0.31543E+01 -0.11899E+02  0.00000E+00 1
 -0.30132E+01 -0.11900E+02  0.00000E+00 1
 -0.39810E+01 -0.11762E+02  0.00000E+00 1
 -0.38391E+01 -0.11762E+02  0.00000E+00 1
 -0.34966E+01 -0.11763E+02  0.00000E+00 1
 -0.31541E+01 -0.11763E+02  0.00000E+00 1
 -0.30122E+01 -0.11764E+02  0.00000E+00 1
 -0.39913E+01 -0.11438E+02  0.00000E+00 1
 -0.38476E+01 -0.11437E+02  0.00000E+00 1
 -0.35005E+01 -0.11436E+02  0.00000E+00 1
 -0.31535E+01 -0.11435E+02  0.00000E+00 1
 -0.30097E+01 -0.11435E+02  0.00000E+00 1
 -0.40016E+01 -0.11113E+02  0.00000E+00 1
 -0.38560E+01 -0.11112E+02  0.00000E+00 1
 -0.35045E+01 -0.11109E+02  0.00000E+00 1
 -0.31529E+01 -0.11107E+02  0.00000E+00 1
 -0.30073E+01 -0.11106E+02  0.00000E+00 1
 -0.40059E+01 -0.10979E+02  0.00000E+00 1
 -0.38595E+01 -0.10978E+02  0.00000E+00 1
 -0.35061E+01 -0.10974E+02  0.00000E+00 1
 -0.31526E+01 -0.10971E+02  0.00000E+00 1
 -0.30062E+01 -0.10969E+02  0.00000E+00 1
 ZONE I=           5 ,J=           5 , F=POINT
 -0.30132E+01 -0.11900E+02  0.00000E+00 1
 -0.28683E+01 -0.11905E+02  0.00000E+00 1
 -0.25184E+01 -0.11917E+02  0.00000E+00 1
 -0.21685E+01 -0.11929E+02  0.00000E+00 1
 -0.20236E+01 -0.11934E+02  0.00000E+00 1
 -0.30122E+01 -0.11764E+02  0.00000E+00 1
 -0.28671E+01 -0.11768E+02  0.00000E+00 1
 -0.25168E+01 -0.11779E+02  0.00000E+00 1
 -0.21665E+01 -0.11790E+02  0.00000E+00 1
 -0.20214E+01 -0.11794E+02  0.00000E+00 1
 -0.30097E+01 -0.11435E+02  0.00000E+00 1
 -0.28642E+01 -0.11438E+02  0.00000E+00 1
 -0.25129E+01 -0.11445E+02  0.00000E+00 1
 -0.21616E+01 -0.11452E+02  0.00000E+00 1
 -0.20161E+01 -0.11455E+02  0.00000E+00 1
 -0.30073E+01 -0.11106E+02  0.00000E+00 1
 -0.28613E+01 -0.11107E+02  0.00000E+00 1
 -0.25090E+01 -0.11111E+02  0.00000E+00 1
 -0.21567E+01 -0.11115E+02  0.00000E+00 1
 -0.20108E+01 -0.11117E+02  0.00000E+00 1
 -0.30062E+01 -0.10969E+02  0.00000E+00 1
 -0.28601E+01 -0.10970E+02  0.00000E+00 1
 -0.25074E+01 -0.10973E+02  0.00000E+00 1
 -0.21547E+01 -0.10976E+02  0.00000E+00 1
 -0.20086E+01 -0.10977E+02  0.00000E+00 1
 ZONE I=           5 ,J=           5 , F=POINT
 -0.20236E+01 -0.11934E+02  0.00000E+00 1
 -0.18760E+01 -0.11939E+02  0.00000E+00 1
 -0.15196E+01 -0.11949E+02  0.00000E+00 1
 -0.11633E+01 -0.11959E+02  0.00000E+00 1
 -0.10157E+01 -0.11964E+02  0.00000E+00 1
 -0.20214E+01 -0.11794E+02  0.00000E+00 1
 -0.18739E+01 -0.11798E+02  0.00000E+00 1
 -0.15178E+01 -0.11807E+02  0.00000E+00 1
 -0.11618E+01 -0.11817E+02  0.00000E+00 1
 -0.10143E+01 -0.11820E+02  0.00000E+00 1
 -0.20161E+01 -0.11455E+02  0.00000E+00 1
 -0.18688E+01 -0.11458E+02  0.00000E+00 1
 -0.15134E+01 -0.11465E+02  0.00000E+00 1
 -0.11580E+01 -0.11472E+02  0.00000E+00 1
 -0.10107E+01 -0.11475E+02  0.00000E+00 1
 -0.20108E+01 -0.11117E+02  0.00000E+00 1
 -0.18638E+01 -0.11119E+02  0.00000E+00 1
 -0.15090E+01 -0.11123E+02  0.00000E+00 1
 -0.11542E+01 -0.11127E+02  0.00000E+00 1
 -0.10072E+01 -0.11129E+02  0.00000E+00 1
 -0.20086E+01 -0.10977E+02  0.00000E+00 1
 -0.18617E+01 -0.10978E+02  0.00000E+00 1
 -0.15072E+01 -0.10981E+02  0.00000E+00 1
 -0.11526E+01 -0.10985E+02  0.00000E+00 1
 -0.10057E+01 -0.10986E+02  0.00000E+00 1
 ZONE I=           5 ,J=           5 , F=POINT
 -0.10157E+01 -0.11964E+02  0.00000E+00 1
 -0.86695E+00 -0.11965E+02  0.00000E+00 1
 -0.50778E+00 -0.11969E+02  0.00000E+00 1
 -0.14861E+00 -0.11973E+02  0.00000E+00 1
  0.16561E-03 -0.11974E+02  0.00000E+00 1
 -0.10143E+01 -0.11820E+02  0.00000E+00 1
 -0.86570E+00 -0.11822E+02  0.00000E+00 1
 -0.50704E+00 -0.11825E+02  0.00000E+00 1
 -0.14838E+00 -0.11829E+02  0.00000E+00 1
  0.17847E-03 -0.11830E+02  0.00000E+00 1
 -0.10107E+01 -0.11475E+02  0.00000E+00 1
 -0.86269E+00 -0.11476E+02  0.00000E+00 1
 -0.50526E+00 -0.11478E+02  0.00000E+00 1
 -0.14784E+00 -0.11481E+02  0.00000E+00 1
  0.20951E-03 -0.11482E+02  0.00000E+00 1
 -0.10072E+01 -0.11129E+02  0.00000E+00 1
 -0.85967E+00 -0.11130E+02  0.00000E+00 1
 -0.50348E+00 -0.11132E+02  0.00000E+00 1
 -0.14730E+00 -0.11133E+02  0.00000E+00 1
  0.24055E-03 -0.11134E+02  0.00000E+00 1
 -0.10057E+01 -0.10986E+02  0.00000E+00 1
 -0.85842E+00 -0.10987E+02  0.00000E+00 1
 -0.50275E+00 -0.10988E+02  0.00000E+00 1
 -0.14707E+00 -0.10989E+02  0.00000E+00 1
  0.25341E-03 -0.10990E+02  0.00000E+00 1
 ZONE I=           5 ,J=           5 , F=POINT
  0.16561E-03 -0.11974E+02  0.00000E+00 1
  0.14902E+00 -0.11973E+02  0.00000E+00 1
  0.50839E+00 -0.11969E+02  0.00000E+00 1
  0.86776E+00 -0.11965E+02  0.00000E+00 1
  0.10166E+01 -0.11963E+02  0.00000E+00 1
  0.17847E-03 -0.11830E+02  0.00000E+00 1
  0.14882E+00 -0.11829E+02  0.00000E+00 1
  0.50767E+00 -0.11825E+02  0.00000E+00 1
  0.86653E+00 -0.11821E+02  0.00000E+00 1
  0.10152E+01 -0.11820E+02  0.00000E+00 1
  0.20951E-03 -0.11482E+02  0.00000E+00 1
  0.14833E+00 -0.11481E+02  0.00000E+00 1
  0.50594E+00 -0.11478E+02  0.00000E+00 1
  0.86354E+00 -0.11475E+02  0.00000E+00 1
  0.10117E+01 -0.11474E+02  0.00000E+00 1
  0.24055E-03 -0.11134E+02  0.00000E+00 1
  0.14785E+00 -0.11133E+02  0.00000E+00 1
  0.50420E+00 -0.11131E+02  0.00000E+00 1
  0.86056E+00 -0.11129E+02  0.00000E+00 1
  0.10082E+01 -0.11129E+02  0.00000E+00 1
  0.25341E-03 -0.10990E+02  0.00000E+00 1
  0.14765E+00 -0.10989E+02  0.00000E+00 1
  0.50349E+00 -0.10988E+02  0.00000E+00 1
  0.85932E+00 -0.10986E+02  0.00000E+00 1
  0.10067E+01 -0.10985E+02  0.00000E+00 1
 ZONE I=           5 ,J=           5 , F=POINT
  0.10166E+01 -0.11963E+02  0.00000E+00 1
  0.11646E+01 -0.11959E+02  0.00000E+00 1
  0.15220E+01 -0.11948E+02  0.00000E+00 1
  0.18794E+01 -0.11937E+02  0.00000E+00 1
  0.20274E+01 -0.11932E+02  0.00000E+00 1
  0.10152E+01 -0.11820E+02  0.00000E+00 1
  0.11631E+01 -0.11816E+02  0.00000E+00 1
  0.15202E+01 -0.11806E+02  0.00000E+00 1
  0.18772E+01 -0.11796E+02  0.00000E+00 1
  0.20252E+01 -0.11792E+02  0.00000E+00 1
  0.10117E+01 -0.11474E+02  0.00000E+00 1
  0.11593E+01 -0.11471E+02  0.00000E+00 1
  0.15157E+01 -0.11464E+02  0.00000E+00 1
  0.18721E+01 -0.11456E+02  0.00000E+00 1
  0.20197E+01 -0.11453E+02  0.00000E+00 1
  0.10082E+01 -0.11129E+02  0.00000E+00 1
  0.11555E+01 -0.11126E+02  0.00000E+00 1
  0.15112E+01 -0.11122E+02  0.00000E+00 1
  0.18669E+01 -0.11117E+02  0.00000E+00 1
  0.20142E+01 -0.11115E+02  0.00000E+00 1
  0.10067E+01 -0.10985E+02  0.00000E+00 1
  0.11539E+01 -0.10984E+02  0.00000E+00 1
  0.15093E+01 -0.10980E+02  0.00000E+00 1
  0.18648E+01 -0.10976E+02  0.00000E+00 1
  0.20120E+01 -0.10974E+02  0.00000E+00 1
 ZONE I=           5 ,J=           5 , F=POINT
  0.20274E+01 -0.11932E+02  0.00000E+00 1
  0.21739E+01 -0.11927E+02  0.00000E+00 1
  0.25275E+01 -0.11913E+02  0.00000E+00 1
  0.28811E+01 -0.11899E+02  0.00000E+00 1
  0.30275E+01 -0.11893E+02  0.00000E+00 1
  0.20252E+01 -0.11792E+02  0.00000E+00 1
  0.21718E+01 -0.11787E+02  0.00000E+00 1
  0.25257E+01 -0.11774E+02  0.00000E+00 1
  0.28796E+01 -0.11762E+02  0.00000E+00 1
  0.30262E+01 -0.11757E+02  0.00000E+00 1
  0.20197E+01 -0.11453E+02  0.00000E+00 1
  0.21666E+01 -0.11450E+02  0.00000E+00 1
  0.25212E+01 -0.11441E+02  0.00000E+00 1
  0.28759E+01 -0.11432E+02  0.00000E+00 1
  0.30228E+01 -0.11428E+02  0.00000E+00 1
  0.20142E+01 -0.11115E+02  0.00000E+00 1
  0.21614E+01 -0.11112E+02  0.00000E+00 1
  0.25168E+01 -0.11107E+02  0.00000E+00 1
  0.28722E+01 -0.11101E+02  0.00000E+00 1
  0.30194E+01 -0.11099E+02  0.00000E+00 1
  0.20120E+01 -0.10974E+02  0.00000E+00 1
  0.21593E+01 -0.10973E+02  0.00000E+00 1
  0.25150E+01 -0.10968E+02  0.00000E+00 1
  0.28707E+01 -0.10964E+02  0.00000E+00 1
  0.30180E+01 -0.10963E+02  0.00000E+00 1
 ZONE I=           5 ,J=           5 , F=POINT
  0.30275E+01 -0.11893E+02  0.00000E+00 1
  0.31732E+01 -0.11890E+02  0.00000E+00 1
  0.35248E+01 -0.11883E+02  0.00000E+00 1
  0.38764E+01 -0.11877E+02  0.00000E+00 1
  0.40220E+01 -0.11874E+02  0.00000E+00 1
  0.30262E+01 -0.11757E+02  0.00000E+00 1
  0.31724E+01 -0.11754E+02  0.00000E+00 1
  0.35254E+01 -0.11748E+02  0.00000E+00 1
  0.38784E+01 -0.11743E+02  0.00000E+00 1
  0.40247E+01 -0.11740E+02  0.00000E+00 1
  0.30228E+01 -0.11428E+02  0.00000E+00 1
  0.31705E+01 -0.11426E+02  0.00000E+00 1
  0.35269E+01 -0.11423E+02  0.00000E+00 1
  0.38834E+01 -0.11419E+02  0.00000E+00 1
  0.40311E+01 -0.11417E+02  0.00000E+00 1
  0.30194E+01 -0.11099E+02  0.00000E+00 1
  0.31685E+01 -0.11098E+02  0.00000E+00 1
  0.35285E+01 -0.11097E+02  0.00000E+00 1
  0.38884E+01 -0.11095E+02  0.00000E+00 1
  0.40375E+01 -0.11095E+02  0.00000E+00 1
  0.30180E+01 -0.10963E+02  0.00000E+00 1
  0.31677E+01 -0.10962E+02  0.00000E+00 1
  0.35291E+01 -0.10962E+02  0.00000E+00 1
  0.38905E+01 -0.10961E+02  0.00000E+00 1
  0.40402E+01 -0.10961E+02  0.00000E+00 1
 ZONE I=           5 ,J=           5 , F=POINT
  0.40220E+01 -0.11874E+02  0.00000E+00 1
  0.41895E+01 -0.11890E+02  0.00000E+00 1
  0.45939E+01 -0.11929E+02  0.00000E+00 1
  0.49983E+01 -0.11968E+02  0.00000E+00 1
  0.51658E+01 -0.11984E+02  0.00000E+00 1
  0.40247E+01 -0.11740E+02  0.00000E+00 1
  0.41900E+01 -0.11754E+02  0.00000E+00 1
  0.45893E+01 -0.11786E+02  0.00000E+00 1
  0.49885E+01 -0.11818E+02  0.00000E+00 1
  0.51539E+01 -0.11832E+02  0.00000E+00 1
  0.40311E+01 -0.11417E+02  0.00000E+00 1
  0.41913E+01 -0.11424E+02  0.00000E+00 1
  0.45782E+01 -0.11441E+02  0.00000E+00 1
  0.49650E+01 -0.11457E+02  0.00000E+00 1
  0.51253E+01 -0.11464E+02  0.00000E+00 1
  0.40375E+01 -0.11095E+02  0.00000E+00 1
  0.41926E+01 -0.11095E+02  0.00000E+00 1
  0.45671E+01 -0.11095E+02  0.00000E+00 1
  0.49415E+01 -0.11096E+02  0.00000E+00 1
  0.50967E+01 -0.11096E+02  0.00000E+00 1
  0.40402E+01 -0.10961E+02  0.00000E+00 1
  0.41932E+01 -0.10958E+02  0.00000E+00 1
  0.45625E+01 -0.10952E+02  0.00000E+00 1
  0.49318E+01 -0.10946E+02  0.00000E+00 1
  0.50848E+01 -0.10944E+02  0.00000E+00 1
 ZONE I=           5 ,J=           5 , F=POINT
  0.51658E+01 -0.11984E+02  0.00000E+00 1
  0.53246E+01 -0.11941E+02  0.00000E+00 1
  0.57082E+01 -0.11835E+02  0.00000E+00 1
  0.60918E+01 -0.11730E+02  0.00000E+00 1
  0.62507E+01 -0.11687E+02  0.00000E+00 1
  0.51539E+01 -0.11832E+02  0.00000E+00 1
  0.53116E+01 -0.11794E+02  0.00000E+00 1
  0.56925E+01 -0.11702E+02  0.00000E+00 1
  0.60733E+01 -0.11609E+02  0.00000E+00 1
  0.62310E+01 -0.11571E+02  0.00000E+00 1
  0.51253E+01 -0.11464E+02  0.00000E+00 1
  0.52803E+01 -0.11439E+02  0.00000E+00 1
  0.56544E+01 -0.11378E+02  0.00000E+00 1
  0.60286E+01 -0.11318E+02  0.00000E+00 1
  0.61836E+01 -0.11292E+02  0.00000E+00 1
  0.50967E+01 -0.11096E+02  0.00000E+00 1
  0.52489E+01 -0.11084E+02  0.00000E+00 1
  0.56164E+01 -0.11055E+02  0.00000E+00 1
  0.59839E+01 -0.11026E+02  0.00000E+00 1
  0.61362E+01 -0.11014E+02  0.00000E+00 1
  0.50848E+01 -0.10944E+02  0.00000E+00 1
  0.52359E+01 -0.10937E+02  0.00000E+00 1
  0.56007E+01 -0.10921E+02  0.00000E+00 1
  0.59654E+01 -0.10905E+02  0.00000E+00 1
  0.61165E+01 -0.10898E+02  0.00000E+00 1
 ZONE I=           5 ,J=           5 , F=POINT
  0.62507E+01 -0.11687E+02  0.00000E+00 1
  0.63452E+01 -0.11669E+02  0.00000E+00 1
  0.65733E+01 -0.11627E+02  0.00000E+00 1
  0.68015E+01 -0.11585E+02  0.00000E+00 1
  0.68960E+01 -0.11567E+02  0.00000E+00 1
  0.62310E+01 -0.11571E+02  0.00000E+00 1
  0.63354E+01 -0.11558E+02  0.00000E+00 1
  0.65876E+01 -0.11525E+02  0.00000E+00 1
  0.68397E+01 -0.11492E+02  0.00000E+00 1
  0.69441E+01 -0.11478E+02  0.00000E+00 1
  0.61836E+01 -0.11292E+02  0.00000E+00 1
  0.63120E+01 -0.11288E+02  0.00000E+00 1
  0.66220E+01 -0.11277E+02  0.00000E+00 1
  0.69319E+01 -0.11267E+02  0.00000E+00 1
  0.70603E+01 -0.11262E+02  0.00000E+00 1
  0.61362E+01 -0.11014E+02  0.00000E+00 1
  0.62885E+01 -0.11018E+02  0.00000E+00 1
  0.66563E+01 -0.11030E+02  0.00000E+00 1
  0.70242E+01 -0.11041E+02  0.00000E+00 1
  0.71765E+01 -0.11046E+02  0.00000E+00 1
  0.61165E+01 -0.10898E+02  0.00000E+00 1
  0.62788E+01 -0.10907E+02  0.00000E+00 1
  0.66706E+01 -0.10927E+02  0.00000E+00 1
  0.70624E+01 -0.10948E+02  0.00000E+00 1
  0.72247E+01 -0.10957E+02  0.00000E+00 1
 ZONE I=           5 ,J=           5 , F=POINT
 -0.77864E+01 -0.10886E+02  0.00000E+00 1
 -0.76756E+01 -0.10916E+02  0.00000E+00 1
 -0.74082E+01 -0.10986E+02  0.00000E+00 1
 -0.71407E+01 -0.11057E+02  0.00000E+00 1
 -0.70300E+01 -0.11086E+02  0.00000E+00 1
 -0.78361E+01 -0.10784E+02  0.00000E+00 1
 -0.77179E+01 -0.10806E+02  0.00000E+00 1
 -0.74325E+01 -0.10860E+02  0.00000E+00 1
 -0.71472E+01 -0.10913E+02  0.00000E+00 1
 -0.70290E+01 -0.10935E+02  0.00000E+00 1
 -0.79560E+01 -0.10537E+02  0.00000E+00 1
 -0.78199E+01 -0.10542E+02  0.00000E+00 1
 -0.74913E+01 -0.10554E+02  0.00000E+00 1
 -0.71627E+01 -0.10565E+02  0.00000E+00 1
 -0.70266E+01 -0.10570E+02  0.00000E+00 1
 -0.80759E+01 -0.10290E+02  0.00000E+00 1
 -0.79219E+01 -0.10278E+02  0.00000E+00 1
 -0.75501E+01 -0.10247E+02  0.00000E+00 1
 -0.71782E+01 -0.10217E+02  0.00000E+00 1
 -0.70242E+01 -0.10205E+02  0.00000E+00 1
 -0.81256E+01 -0.10188E+02  0.00000E+00 1
 -0.79642E+01 -0.10168E+02  0.00000E+00 1
 -0.75744E+01 -0.10121E+02  0.00000E+00 1
 -0.71846E+01 -0.10073E+02  0.00000E+00 1
 -0.70232E+01 -0.10054E+02  0.00000E+00 1
 ZONE I=           5 ,J=           5 , F=POINT
 -0.70300E+01 -0.11086E+02  0.00000E+00 1
 -0.68783E+01 -0.11069E+02  0.00000E+00 1
 -0.65123E+01 -0.11028E+02  0.00000E+00 1
 -0.61463E+01 -0.10988E+02  0.00000E+00 1
 -0.59947E+01 -0.10971E+02  0.00000E+00 1
 -0.70290E+01 -0.10935E+02  0.00000E+00 1
 -0.68779E+01 -0.10920E+02  0.00000E+00 1
 -0.65133E+01 -0.10883E+02  0.00000E+00 1
 -0.61487E+01 -0.10847E+02  0.00000E+00 1
 -0.59977E+01 -0.10832E+02  0.00000E+00 1
 -0.70266E+01 -0.10570E+02  0.00000E+00 1
 -0.68770E+01 -0.10559E+02  0.00000E+00 1
 -0.65158E+01 -0.10533E+02  0.00000E+00 1
 -0.61546E+01 -0.10507E+02  0.00000E+00 1
 -0.60050E+01 -0.10496E+02  0.00000E+00 1
 -0.70242E+01 -0.10205E+02  0.00000E+00 1
 -0.68760E+01 -0.10198E+02  0.00000E+00 1
 -0.65183E+01 -0.10182E+02  0.00000E+00 1
 -0.61605E+01 -0.10167E+02  0.00000E+00 1
 -0.60124E+01 -0.10160E+02  0.00000E+00 1
 -0.70232E+01 -0.10054E+02  0.00000E+00 1
 -0.68756E+01 -0.10049E+02  0.00000E+00 1
 -0.65193E+01 -0.10037E+02  0.00000E+00 1
 -0.61630E+01 -0.10026E+02  0.00000E+00 1
 -0.60154E+01 -0.10021E+02  0.00000E+00 1
 ZONE I=           5 ,J=           5 , F=POINT
 -0.59947E+01 -0.10971E+02  0.00000E+00 1
 -0.58507E+01 -0.10973E+02  0.00000E+00 1
 -0.55030E+01 -0.10977E+02  0.00000E+00 1
 -0.51553E+01 -0.10982E+02  0.00000E+00 1
 -0.50113E+01 -0.10984E+02  0.00000E+00 1
 -0.59977E+01 -0.10832E+02  0.00000E+00 1
 -0.58532E+01 -0.10833E+02  0.00000E+00 1
 -0.55044E+01 -0.10836E+02  0.00000E+00 1
 -0.51556E+01 -0.10839E+02  0.00000E+00 1
 -0.50111E+01 -0.10841E+02  0.00000E+00 1
 -0.60050E+01 -0.10496E+02  0.00000E+00 1
 -0.58594E+01 -0.10496E+02  0.00000E+00 1
 -0.55079E+01 -0.10495E+02  0.00000E+00 1
 -0.51563E+01 -0.10495E+02  0.00000E+00 1
 -0.50107E+01 -0.10495E+02  0.00000E+00 1
 -0.60124E+01 -0.10160E+02  0.00000E+00 1
 -0.58656E+01 -0.10158E+02  0.00000E+00 1
 -0.55113E+01 -0.10154E+02  0.00000E+00 1
 -0.51570E+01 -0.10150E+02  0.00000E+00 1
 -0.50103E+01 -0.10149E+02  0.00000E+00 1
 -0.60154E+01 -0.10021E+02  0.00000E+00 1
 -0.58682E+01 -0.10019E+02  0.00000E+00 1
 -0.55128E+01 -0.10013E+02  0.00000E+00 1
 -0.51573E+01 -0.10008E+02  0.00000E+00 1
 -0.50101E+01 -0.10005E+02  0.00000E+00 1
 ZONE I=           5 ,J=           5 , F=POINT
 -0.50113E+01 -0.10984E+02  0.00000E+00 1
 -0.48640E+01 -0.10983E+02  0.00000E+00 1
 -0.45086E+01 -0.10982E+02  0.00000E+00 1
 -0.41532E+01 -0.10980E+02  0.00000E+00 1
 -0.40059E+01 -0.10979E+02  0.00000E+00 1
 -0.50111E+01 -0.10841E+02  0.00000E+00 1