 VARIABLES = "X", "Y", "Z", "Material ID"
 ZONE F=FEPOINT, ET=QUADRILATERAL, N=         981 E=         928
  -4.6025467067817889       -12.660797320910273        0.0000000000000000                1
  -3.9665084642111443       -12.686753565342217        0.0000000000000000                1
  -3.0513001235218944       -12.779562917302302        0.0000000000000000                1
  -2.0602871745477134       -12.877431786109135        0.0000000000000000                1
  -1.0369332995906784       -12.944765565946895        0.0000000000000000                1
   9.8374757201938768E-005  -12.968287156455935        0.0000000000000000                1
   1.0375155819985442       -12.944491928512859        0.0000000000000000                1
   2.0629301548571912       -12.876158353349874        0.0000000000000000                1
   3.0613362230213439       -12.774752678646850        0.0000000000000000                1
   3.9984217058632838       -12.671540577725034        0.0000000000000000                1
   4.6831181666414556       -12.623441394203413        0.0000000000000000                1
  -6.6626811583963068       -11.705459460587491        0.0000000000000000                1
  -6.0367071212830332       -11.802615778684451        0.0000000000000000                1
  -5.0270176927032839       -12.052675099967091        0.0000000000000000                1
  -3.9766708919518021       -11.896273786629253        0.0000000000000000                1
  -3.0132298034927461       -11.899972964867789        0.0000000000000000                1
  -2.0235623555647431       -11.934266963953375        0.0000000000000000                1
  -1.0157277362155142       -11.963515000216411        0.0000000000000000                1
   1.6561311995772214E-004  -11.974304075019122        0.0000000000000000                1
   1.0166189056470256       -11.963041232667798        0.0000000000000000                1
   2.0274183090441320       -11.932293418878755        0.0000000000000000                1
   3.0275460332489486       -11.892900837670936        0.0000000000000000                1
   4.0220078998534579       -11.873967029519308        0.0000000000000000                1
   5.1657668064035009       -11.984139239728872        0.0000000000000000                1
   6.2506614890016960       -11.686721784349366        0.0000000000000000                1
   6.8959746251156160       -11.567481151120415        0.0000000000000000                1
  -7.7864072415780390       -10.886470640615693        0.0000000000000000                1
  -7.0299584542002362       -11.086144035773051        0.0000000000000000                1
  -5.9946686580754536       -10.970829343923539        0.0000000000000000                1
  -5.0112589851643641       -10.984061659178492        0.0000000000000000                1
  -4.0059317000395342       -10.979073819285208        0.0000000000000000                1
  -3.0062348640318359       -10.969292550718576        0.0000000000000000                1
  -2.0085609702921920       -10.976605249562391        0.0000000000000000                1
  -1.0057486886930158       -10.986185536506900        0.0000000000000000                1
   2.5340992711647177E-004  -10.989918634263278        0.0000000000000000                1
   1.0067166482053469       -10.985367845300321        0.0000000000000000                1
   2.0119832136334250       -10.974252193925727        0.0000000000000000                1
   3.0180378939075232       -10.962680408357970        0.0000000000000000                1
   4.0401853994297587       -10.960956576752000        0.0000000000000000                1
   5.0847977653909826       -10.943817509819358        0.0000000000000000                1
   6.1165230138704025       -10.898160332389033        0.0000000000000000                1
   7.2246640455138742       -10.956730030367654        0.0000000000000000                1
   8.0022762888758976       -10.726270149328478        0.0000000000000000                1
  -8.8951222738780586       -9.9390517801896596        0.0000000000000000                1
  -8.1256021235124081       -10.187888040096722        0.0000000000000000                1
  -7.0231967600606406       -10.053511652782872        0.0000000000000000                1
  -6.0153908898823270       -10.021053661589482        0.0000000000000000                1
  -5.0101223519119387       -10.005228742374667        0.0000000000000000                1
  -4.0077323971596943       -10.002408363019269        0.0000000000000000                1
  -3.0055859507246017       -10.002251771263925        0.0000000000000000                1
  -2.0041420809826396       -10.005318151520216        0.0000000000000000                1
  -1.0021763804533048       -10.009151168029714        0.0000000000000000                1
   5.4494719351023523E-004  -10.010004765091056        0.0000000000000000                1
   1.0034501711308381       -10.006758874946438        0.0000000000000000                1
   2.0066152972813103       -10.000973895591486        0.0000000000000000                1
   3.0122786676465969       -9.9955405590693491        0.0000000000000000                1
   4.0245476170802936       -9.9905581485267696        0.0000000000000000                1
   5.0454818396004253       -9.9823572715981683        0.0000000000000000                1
   6.0809646408160916       -9.9765831439656143        0.0000000000000000                1
   7.1320266772737169       -9.9722750029860929        0.0000000000000000                1
   8.3060334898353609       -10.038174191824144        0.0000000000000000                1
   9.0949474971290130       -9.7546721637867169        0.0000000000000000                1
  -9.9390527693996749       -8.8951349292704904        0.0000000000000000                1
  -9.1916726917607878       -9.1916936408069159        0.0000000000000000                1
  -8.0675305124608112       -9.0845825426209270        0.0000000000000000                1
  -7.0382695126450576       -9.0532148018674299        0.0000000000000000                1
  -6.0188237875484667       -9.0272471323047050        0.0000000000000000                1
  -5.0123629699096917       -9.0198784126356681        0.0000000000000000                1
  -4.0087201153826477       -9.0228089705955909        0.0000000000000000                1
  -3.0053764754702081       -9.0323596347465251        0.0000000000000000                1
  -2.0028234015326625       -9.0448973919582141        0.0000000000000000                1
  -1.0009936625904923       -9.0539449096940388        0.0000000000000000                1
   7.9614728079966703E-004  -9.0539855347076710        0.0000000000000000                1
   1.0027335837791307       -9.0446639470817409        0.0000000000000000                1
   2.0055296476140620       -9.0309603031020362        0.0000000000000000                1
   3.0097616386194241       -9.0189149137322389        0.0000000000000000                1
   4.0157277658439945       -9.0101317777885175        0.0000000000000000                1
   5.0263383679296769       -9.0039107663784996        0.0000000000000000                1
   6.0484238529901546       -9.0008347835338824        0.0000000000000000                1
   7.0960833826177661       -9.0029878853420158        0.0000000000000000                1
   8.1662246204683502       -8.9924223957688767        0.0000000000000000                1
   9.3554081807315566       -9.0231011598191913        0.0000000000000000                1
   10.117142679519668       -8.6913655932086584        0.0000000000000000                1
  -10.886483480944039       -7.7864219963013870        0.0000000000000000                1
  -10.187908320212809       -8.1256476831459139        0.0000000000000000                1
  -9.0845712881356846       -8.0676653162381786        0.0000000000000000                1
  -8.0567691058403472       -8.0570377060249143        0.0000000000000000                1
  -7.0313101608972426       -8.0371551836931960        0.0000000000000000                1
  -6.0210304260417082       -8.0318615016922585        0.0000000000000000                1
  -5.0184606518631458       -8.0416534459159177        0.0000000000000000                1
  -4.0121508702157804       -8.0594125041698224        0.0000000000000000                1
  -2.9985841364589434       -8.0910807913236908        0.0000000000000000                1
  -1.9929544657068379       -8.1398127979428541        0.0000000000000000                1
 -0.99707932838153912       -8.1727513149279734        0.0000000000000000                1
  -2.0604359687487282E-003  -8.1726139219338325        0.0000000000000000                1
  0.99394463313375980       -8.1393138643756533        0.0000000000000000                1
   1.9994984288488027       -8.0900060256137625        0.0000000000000000                1
   3.0125822724742797       -8.0571573379086896        0.0000000000000000                1
   4.0183144797991330       -8.0363201600686125        0.0000000000000000                1
   5.0201925270561292       -8.0191796466394312        0.0000000000000000                1
   6.0303667852992158       -8.0109081214978506        0.0000000000000000                1
   7.0560731265857406       -8.0071053330009470        0.0000000000000000                1
   8.1079912275120485       -8.0007643065788319        0.0000000000000000                1
   9.1725053446351446       -7.9654666725079855        0.0000000000000000                1
   10.331503863836998       -7.9417492836611094        0.0000000000000000                1
   11.039718429643301       -7.5675605281599330        0.0000000000000000                1
  -11.705473566311847       -6.6626908953107211        0.0000000000000000                1
  -11.086188115444138       -7.0299973402382436        0.0000000000000000                1
  -10.053611810654402       -7.0233379872280892        0.0000000000000000                1
  -9.0532484703707752       -7.0386755791813522        0.0000000000000000                1
  -8.0366128459961228       -7.0323933468271731        0.0000000000000000                1
  -7.0294018501308031       -7.0319084310102351        0.0000000000000000                1
  -6.0263001429867868       -7.0436836892953512        0.0000000000000000                1
  -5.0277667510737247       -7.0880766063378164        0.0000000000000000                1
  -4.0394823266959010       -7.1561035593239932        0.0000000000000000                1
  -2.9502998351534968       -7.1539632567077192        0.0000000000000000                1
  -1.9389976494371357       -7.3801543199756434        0.0000000000000000                1
 -0.98639733703182209       -7.4362848365842815        0.0000000000000000                1
  -1.1011908102663783E-002  -7.4359961647733845        0.0000000000000000                1
  0.94210520399069975       -7.3793110125424120        0.0000000000000000                1
   1.9542655635553916       -7.1524193406028287        0.0000000000000000                1
   3.0410554272924699       -7.1545169720457436        0.0000000000000000                1
   4.0275788780275796       -7.0853805208164982        0.0000000000000000                1
   5.0244616062231584       -7.0377507342006709        0.0000000000000000                1
   6.0258842790890847       -7.0193836480870733        0.0000000000000000                1
   7.0338381887930579       -7.0096669995752521        0.0000000000000000                1
   8.0570163857240740       -6.9996421181212538        0.0000000000000000                1
   9.0983901087150780       -6.9764440101739620        0.0000000000000000                1
   10.131352517397307       -6.9095316895717644        0.0000000000000000                1
   11.212153630096948       -6.8262739347649628        0.0000000000000000                1
   11.844781824229084       -6.4094696230582135        0.0000000000000000                1
  -11.802655483533036       -6.0367303318460976        0.0000000000000000                1
  -10.970986803186300       -5.9947732006529755        0.0000000000000000                1
  -10.021421070372945       -6.0156935005566172        0.0000000000000000                1
  -9.0273144115511865       -6.0193559334164464        0.0000000000000000                1
  -8.0298150405695079       -6.0229417689747562        0.0000000000000000                1
  -7.0370301424960742       -6.0338843298668383        0.0000000000000000                1
  -6.0541101644008029       -6.0704516329547786        0.0000000000000000                1
  -5.0045905439924443       -6.1055325395323656        0.0000000000000000                1
  -4.0682111596624404       -6.4202168988585022        0.0000000000000000                1
  -3.3001509284250812       -6.4965346968172692        0.0000000000000000                1
  -1.9211753936064584       -6.3427328889531145        0.0000000000000000                2
 -0.98057446620723177       -6.4822101309992748        0.0000000000000000                2
  -1.0281422014410735E-002  -6.4815257242701563        0.0000000000000000                2
  0.93671651730708883       -6.3392306827324871        0.0000000000000000                2
   2.3076090278128740       -6.4937720655128999        0.0000000000000000                1
   3.0717233826492860       -6.4184037269015306        0.0000000000000000                1
   4.0054371237262201       -6.1040470012344938        0.0000000000000000                1
   5.0530427094386603       -6.0679302327269564        0.0000000000000000                1
   6.0346356128358352       -6.0285794919606008        0.0000000000000000                1
   7.0272935851537293       -6.0126917895678220        0.0000000000000000                1
   8.0310637027554606       -6.0017448577461412        0.0000000000000000                1
   9.0455381589405270       -5.9833506089116932        0.0000000000000000                1
   10.063367510675844       -5.9416976307713432        0.0000000000000000                1
   11.044718619002204       -5.8551151330241344        0.0000000000000000                1
   11.918737852502328       -5.8024739399755427        0.0000000000000000                1
  -12.660813550584022       -4.6025536903083442        0.0000000000000000                1
  -12.052765851144564       -5.0270609899294758        0.0000000000000000                1
  -10.984484316761133       -5.0114744604843526        0.0000000000000000                1
  -10.006464054611545       -5.0107400391478718        0.0000000000000000                1
  -9.0215839266809148       -5.0128422332234512        0.0000000000000000                1
  -8.0355224073395597       -5.0149655412113194        0.0000000000000000                1
  -7.0649621872371640       -5.0389343823614841        0.0000000000000000                1
  -6.0725488863944088       -5.0607462846778457        0.0000000000000000                1
  -5.3012572143116747       -5.3390488721919169        0.0000000000000000                1
  -4.1532531803336727       -5.3762199732136988        0.0000000000000000                2
  -3.3807426963367369       -5.8267762542852584        0.0000000000000000                2
  -2.5360225445906113       -6.1728933408830873        0.0000000000000000                2
 -0.90378243081858434       -5.4059426052107735        0.0000000000000000                2
  -8.4354347596070911E-002  -5.4039758855819997        0.0000000000000000                2
   1.5597736009644190       -6.1650087358226884        0.0000000000000000                2
   2.3966022627667005       -5.8189084312553696        0.0000000000000000                2
   3.1596452876067898       -5.3718708443983845        0.0000000000000000                2
   4.3017528580137734       -5.3383016650367487        0.0000000000000000                1
   5.0721910225574014       -5.0598838810778686        0.0000000000000000                1
   6.0637773595840958       -5.0368582281646459        0.0000000000000000                1
   7.0342933179463714       -5.0105345914790576        0.0000000000000000                1
   8.0238665121875741       -5.0037462013239224        0.0000000000000000                1
   9.0226739950024815       -4.9912583428577015        0.0000000000000000                1
   10.026075960166370       -4.9623733225943916        0.0000000000000000                1
   11.030332635963836       -4.9045063849593120        0.0000000000000000                1
   12.140624844152063       -4.8058355349523927        0.0000000000000000                1
   12.760108087716468       -4.3109369223198382        0.0000000000000000                1
  -12.686786764795283       -3.9665205217351054        0.0000000000000000                1
  -11.896479323710118       -3.9767497784535646        0.0000000000000000                1
  -10.980015982584998       -4.0063064857019652        0.0000000000000000                1
  -10.005680696438185       -4.0089563218812403        0.0000000000000000                1
  -9.0314285108547878       -4.0106534127996385        0.0000000000000000                1
  -8.0731653880268457       -4.0063464440614167        0.0000000000000000                1
  -7.0778583380046403       -3.9575683316120953        0.0000000000000000                1
  -6.3227744974607516       -4.2561297965548217        0.0000000000000000                1
  -5.3618585171017346       -4.3142011728343546        0.0000000000000000                2
  -4.7818326134117228       -4.8903895009215512        0.0000000000000000                2
  -3.1077850123374304       -4.3559726232962390        0.0000000000000000                2
  -2.2293763207023392       -4.2955576440348349        0.0000000000000000                2
  -1.1807185756993273       -4.5248997267091067        0.0000000000000000                2
  0.18058119704484746       -4.5251519286707120        0.0000000000000000                2
   1.2344944473387780       -4.2863723867905579        0.0000000000000000                2
   2.1354385807706868       -4.3542269841069254        0.0000000000000000                2
   3.7856847467500252       -4.8870140424879249        0.0000000000000000                2
   4.3621740365246353       -4.3138455742580470        0.0000000000000000                2
   5.3224862196917426       -4.2560267983643021        0.0000000000000000                1
   6.0773684561817678       -3.9570067337241368        0.0000000000000000                1
   7.0726989697146116       -4.0043736285819875        0.0000000000000000                1
   8.0331413876116535       -4.0057189254719088        0.0000000000000000                1
   9.0160211246123545       -3.9963665703635129        0.0000000000000000                1
   10.011027911227611       -3.9754809956742228        0.0000000000000000                1
   11.006310163969008       -3.9254051998824364        0.0000000000000000                1
   11.948565257162944       -3.8093509871792288        0.0000000000000000                1
   12.772841152022192       -3.6692118753299843        0.0000000000000000                1
  -12.779619245990201       -3.0513160646734794        0.0000000000000000                1
  -11.900333575470162       -3.0133360755121092        0.0000000000000000                1
  -10.971036923330024       -3.0067656950848520        0.0000000000000000                1
  -10.008853051448458       -3.0075845815155664        0.0000000000000000                1
  -9.0530448056646549       -3.0110007792416353        0.0000000000000000                1
  -8.1501638781242605       -3.0098666520913793        0.0000000000000000                1
  -7.3894512497637210       -2.9711616547468402        0.0000000000000000                1
  -6.2644176906431044       -3.0035793127202117        0.0000000000000000                2
  -5.8806859283086341       -3.6466723106006453        0.0000000000000000                2
  -4.2719597899692898       -3.2325897459782000        0.0000000000000000                2
  -3.2209649705419974       -3.3037830233258769        0.0000000000000000                2
  -2.1176649452295404       -3.3732106718660773        0.0000000000000000                2
  -1.0387695343126049       -3.0738067872450041        0.0000000000000000                2
   3.0447253203350875E-002  -3.3598520922274613        0.0000000000000000                2
   1.0267895107191798       -3.1408968779577120        0.0000000000000000                2
   2.3557019046407532       -3.4052670826057856        0.0000000000000000                2
   3.3168508862320509       -3.2655956434463085        0.0000000000000000                2
   4.8789369493061425       -3.6492516075750561        0.0000000000000000                2
   5.2633358300026272       -3.0056546891830287        0.0000000000000000                2
   6.3891899380238097       -2.9711241340508803        0.0000000000000000                1
   7.1500988978536695       -3.0089950086946473        0.0000000000000000                1
   8.0546677545410894       -3.0082170912427895        0.0000000000000000                1
   9.0177879493365278       -2.9993847586596387        0.0000000000000000                1
   10.003315164819758       -2.9836539738998544        0.0000000000000000                1
   10.984216650268273       -2.9465944503228680        0.0000000000000000                1
   11.934297848143755       -2.8734740494385909        0.0000000000000000                1
   12.844276507044265       -2.7628079705943338        0.0000000000000000                1
  -12.877514722071485       -2.0603045327795004        0.0000000000000000                1
  -11.934810284340667       -2.0236754138359982        0.0000000000000000                1
  -10.979320896344969       -2.0091430210761247        0.0000000000000000                1
  -10.015905569083863       -2.0065268777342844        0.0000000000000000                1
  -9.0780029041632400       -2.0110481321638991        0.0000000000000000                1
  -8.2255359492222002       -2.0193763193597603        0.0000000000000000                1
  -7.5279637717669194       -2.0293221590843853        0.0000000000000000                1
  -6.6439603372192586       -2.1217331063723841        0.0000000000000000                2
  -5.3029568836904577       -1.9723007336098461        0.0000000000000000                2
  -4.3005670370574309       -2.1597573406381319        0.0000000000000000                2
  -3.2792640173633281       -2.2624503724164180        0.0000000000000000                2
  -2.0386621888589707       -2.1281668005122953        0.0000000000000000                2
  -1.0097916262934024       -2.2320986353943217        0.0000000000000000                2
   1.2448800180558927E-002  -2.1101266556232625        0.0000000000000000                2
   1.1866139395392574       -2.2058440270687782        0.0000000000000000                2
   2.1094923334197242       -2.0501293051268941        0.0000000000000000                2
   3.4363301406807598       -2.2859819062304791        0.0000000000000000                2
   4.3261493777973499       -2.0072129759580353        0.0000000000000000                2
   5.6429707599739976       -2.1245964892431886        0.0000000000000000                2
   6.5278095988635689       -2.0295352364259949        0.0000000000000000                1
   7.2256574258030888       -2.0190212427984839        0.0000000000000000                1
   8.0795492199769292       -2.0094477164731250        0.0000000000000000                1
   9.0230898192924123       -2.0007824693646956        0.0000000000000000                1
   10.001636989105089       -1.9897749987769269        0.0000000000000000                1
   10.984086035873679       -1.9665372328767463        0.0000000000000000                1
   11.954762769935085       -1.9206122289561434        0.0000000000000000                1
   12.916521057258956       -1.8412213363200396        0.0000000000000000                1
  -12.944877088489521       -1.0369571259283807        0.0000000000000000                1
  -11.964231135704534       -1.0158282360402364        0.0000000000000000                1
  -10.989798780312704       -1.0062041730112099        0.0000000000000000                1
  -10.023351454836668       -1.0040326072128394        0.0000000000000000                1
  -9.0971137262008792       -1.0073696894930160        0.0000000000000000                1
  -8.2728243850018348       -1.0161268957469349        0.0000000000000000                1
  -7.6187408579571247       -1.0311791093742586        0.0000000000000000                1
  -6.9041653381565737       -1.1120549993385673        0.0000000000000000                2
  -5.2086432791578448       -1.0357572807787145        0.0000000000000000                2
  -4.3352231099344287       -1.0464482473043484        0.0000000000000000                2
  -3.1315961109483039       -1.0302154597098445        0.0000000000000000                2
  -2.0607614061913093       -1.0605589277051208        0.0000000000000000                3
  -1.0000874438104619       -1.4999999974511933        0.0000000000000000                3
   6.0557153768013849E-002  -1.0607631797868406        0.0000000000000000                3
   1.0961187252507025       -1.0160329502051044        0.0000000000000000                2
   2.2694105849554367       -1.0418725777015376        0.0000000000000000                2
   3.2387165032724239       -1.0682937512125150        0.0000000000000000                2
   4.2241783675577897       -1.0560797432870197        0.0000000000000000                2
   5.9037843538626280       -1.1142468080385997        0.0000000000000000                2
   6.6186536856647775       -1.0313798217743804        0.0000000000000000                1
   7.2730022824878260       -1.0159989378771825        0.0000000000000000                1
   8.0983777365352871       -1.0065174202152267        0.0000000000000000                1
   9.0282436301162790       -1.0005025265170435        0.0000000000000000                1
   10.002958958121678      -0.99384463391745004        0.0000000000000000                1
   10.988906125718524      -0.98073315505544045        0.0000000000000000                1
   11.973289239894040      -0.95799202880069922        0.0000000000000000                1
   12.960213669099698      -0.93861605198410958        0.0000000000000000                1
  -12.968451421338546        8.0689171156684694E-009   0.0000000000000000                1
  -11.975174550770140        8.8310369792727249E-009   0.0000000000000000                1
  -10.994105092523915        5.9413450630489711E-009   0.0000000000000000                1
  -10.026432211251931        2.9006136050871342E-009   0.0000000000000000                1
  -9.1042169969734488        3.0281780794077038E-009   0.0000000000000000                1
  -8.2900008196898050        1.1550020395509753E-008   0.0000000000000000                1
  -7.6528003642350768        3.6603034620898084E-008   0.0000000000000000                1
  -7.0000000000000000       -2.9582788252475147E-009   0.0000000000000000                2
  -5.1845914408437572        5.2119806426145019E-008   0.0000000000000000                2
  -4.0222079790548984        3.1894393422869371E-008   0.0000000000000000                2
  -3.2332166990719595        9.5419113596897006E-009   0.0000000000000000                2
  -2.5000000000000000       -6.8267972890327256E-010   0.0000000000000000                3
  -1.0000018684506473        5.5227874837989934E-007   0.0000000000000000                3
  0.49999999997719957        8.2704971941581254E-006   0.0000000000000000                3
   1.2060884950337831        2.2695369542628090E-006   0.0000000000000000                2
   1.9792059278039347        1.2395788017547436E-005   0.0000000000000000                2
   3.1934204418048462        1.3539209495283194E-005   0.0000000000000000                2
   4.2021866229720590        9.1581432048181729E-006   0.0000000000000000                2
   5.9999999999898375        1.1493985903828957E-005   0.0000000000000000                2
   6.6527397755670217        7.7243054872960710E-006   0.0000000000000000                1
   7.2901796091837205        4.2960236866556387E-005   0.0000000000000000                1
   8.1052951577293229        2.5235923396937015E-004   0.0000000000000000                1
   9.0302370249419255        1.1813946365430313E-003   0.0000000000000000                1
   10.003410266098891        4.2731915749590569E-003   0.0000000000000000                1
   10.990038150844402        1.1709690474750149E-002   0.0000000000000000                1
   11.977696897126801        2.2917638329718180E-002   0.0000000000000000                1
   12.971919198404615        2.3150049273196228E-002   0.0000000000000000                1
  -12.944877080093045        1.0369571576785936        0.0000000000000000                1
  -11.964231126171027        1.0158282713657305        0.0000000000000000                1
  -10.989798774672039        1.0062041943228441        0.0000000000000000                1
  -10.023351452690800        1.0040326160272219        0.0000000000000000                1
  -9.0971137256117363        1.0073696954272777        0.0000000000000000                1
  -8.2728243848178469        1.0161269140317888        0.0000000000000000                1
  -7.6187408571537114        1.0311791651641620        0.0000000000000000                1
  -6.9041653391417217        1.1120549936652420        0.0000000000000000                2
  -5.2086435766938068        1.0357574643036760        0.0000000000000000                2
  -4.3352236699915947        1.0464485017823260        0.0000000000000000                2