 VARIABLES = "X", "Y", "Z", "Material ID"
 ZONE F=FEPOINT, ET=QUADRILATERAL, N=         981 E=         928
  -4.6026821845266879       -12.660789402326371        0.0000000000000000                1
  -3.9669259313702900       -12.686629676275819        0.0000000000000000                1
  -3.0515669888193324       -12.779486693443317        0.0000000000000000                1
  -2.0602569316191981       -12.877411658908386        0.0000000000000000                1
  -1.0366844248432701       -12.944782896031869        0.0000000000000000                1
   9.9597112502042095E-005  -12.968315875902794        0.0000000000000000                1
   1.0372699789417972       -12.944508389212441        0.0000000000000000                1
   2.0629101770265721       -12.876134150707060        0.0000000000000000                1
   3.0616409576492578       -12.774661076724852        0.0000000000000000                1
   3.9989629901325228       -12.671366401145129        0.0000000000000000                1
   4.6836221066691142       -12.623284633754388        0.0000000000000000                1
  -6.6630655136718957       -11.705217409727508        0.0000000000000000                1
  -6.0366070540574066       -11.802620271096973        0.0000000000000000                1
  -5.0267208222438473       -12.052809809222193        0.0000000000000000                1
  -3.9767260216941707       -11.896269173482064        0.0000000000000000                1
  -3.0133120541944396       -11.899947190386346        0.0000000000000000                1
  -2.0235635523285085       -11.934255147080291        0.0000000000000000                1
  -1.0156822395345928       -11.963518465775755        0.0000000000000000                1
   1.6648622280858092E-004  -11.974313180780094        0.0000000000000000                1
   1.0165771307479572       -11.963043435043668        0.0000000000000000                1
   2.0274337473544923       -11.932275896725519        0.0000000000000000                1
   3.0276785662979173       -11.892854619768682        0.0000000000000000                1
   4.0222150774408112       -11.873900489618586        0.0000000000000000                1
   5.1659031716347936       -11.984096732728114        0.0000000000000000                1
   6.2508630500055711       -11.686595674226579        0.0000000000000000                1
   6.8964620832322314       -11.567179836236145        0.0000000000000000                1
  -7.7865031609523880       -10.886445149033030        0.0000000000000000                1
  -7.0302838788973006       -11.085931795745987        0.0000000000000000                1
  -5.9947093493741379       -10.970785035869543        0.0000000000000000                1
  -5.0112064459235004       -10.984078656038891        0.0000000000000000                1
  -4.0059107209278357       -10.979086216029907        0.0000000000000000                1
  -3.0062463772820647       -10.969289702378568        0.0000000000000000                1
  -2.0085632505324829       -10.976601665737924        0.0000000000000000                1
  -1.0057410204979746       -10.986185918774725        0.0000000000000000                1
   2.5402624327707174E-004  -10.989920784824358        0.0000000000000000                1
   1.0067119980716195       -10.985367095593908        0.0000000000000000                1
   2.0119970760329675       -10.974243917130675        0.0000000000000000                1
   3.0180866900451244       -10.962662395870359        0.0000000000000000                1
   4.0402583999096091       -10.960930722558128        0.0000000000000000                1
   5.0848872131942491       -10.943776815928803        0.0000000000000000                1
   6.1166653095306946       -10.898078099182742        0.0000000000000000                1
   7.2249003367951206       -10.956588451442487        0.0000000000000000                1
   8.0022108504957021       -10.726340037896465        0.0000000000000000                1
  -8.8952968789520099       -9.9388653605735655        0.0000000000000000                1
  -8.1254992310151515       -10.187969279542525        0.0000000000000000                1
  -7.0232480691402017       -10.053482042714860        0.0000000000000000                1
  -6.0154265586026936       -10.021026021400607        0.0000000000000000                1
  -5.0101186983279051       -10.005225332269100        0.0000000000000000                1
  -4.0077235358006913       -10.002411422408089        0.0000000000000000                1
  -3.0055839778678286       -10.002252613653956        0.0000000000000000                1
  -2.0041418230647565       -10.005317648460831        0.0000000000000000                1
  -1.0021751040051430       -10.009151223041235        0.0000000000000000                1
   5.4535420846213629E-004  -10.010005101043118        0.0000000000000000                1
   1.0034508889064140       -10.006758056624236        0.0000000000000000                1
   2.0066217838037890       -10.000970569730509        0.0000000000000000                1
   3.0122949240041432       -9.9955339860052685        0.0000000000000000                1
   4.0245741397035379       -9.9905469670163143        0.0000000000000000                1
   5.0455220996292631       -9.9823368315285403        0.0000000000000000                1
   6.0810249603743038       -9.9765487587666453        0.0000000000000000                1
   7.1320787328949056       -9.9722459931204384        0.0000000000000000                1
   8.3060354481969494       -10.038168382467299        0.0000000000000000                1
   9.0950453225850243       -9.7545913926670771        0.0000000000000000                1
  -9.9388673159562284       -8.8953085747137219        0.0000000000000000                1
  -9.1916869307626303       -9.1917064880009569        0.0000000000000000                1
  -8.0675336268318745       -9.0845814894845525        0.0000000000000000                1
  -7.0382729890354137       -9.0532143086004400        0.0000000000000000                1
  -6.0188345639780838       -9.0272393918819684        0.0000000000000000                1
  -5.0123679815109359       -9.0198734699597569        0.0000000000000000                1
  -4.0087216336225380       -9.0228068612153205        0.0000000000000000                1
  -3.0053778324445575       -9.0323582862310730        0.0000000000000000                1
  -2.0028242500835201       -9.0448965804064692        0.0000000000000000                1
  -1.0009936826325216       -9.0539447582781438        0.0000000000000000                1
   7.9666627640547871E-004  -9.0539853541887094        0.0000000000000000                1
   1.0027355656880712       -9.0446627193681515        0.0000000000000000                1
   2.0055345805843334       -9.0309575212929420        0.0000000000000000                1
   3.0097698491632974       -9.0189106206829628        0.0000000000000000                1
   4.0157391611228999       -9.0101257083524509        0.0000000000000000                1
   5.0263539218732314       -9.0039019682982264        0.0000000000000000                1
   6.0484423136940260       -9.0008241713322903        0.0000000000000000                1
   7.0960969581048428       -9.0029805825512792        0.0000000000000000                1
   8.1662288570159038       -8.9924232785234697        0.0000000000000000                1
   9.3553654464152434       -9.0231546402120735        0.0000000000000000                1
   10.117143813447445       -8.6913424188914732        0.0000000000000000                1
  -10.886458091811653       -7.7865178279279803        0.0000000000000000                1
  -10.187990054620220       -8.1255443285717810        0.0000000000000000                1
  -9.0845717238885495       -8.0676669974505604        0.0000000000000000                1
  -8.0567725222338566       -8.0570375674389982        0.0000000000000000                1
  -7.0313148989728314       -8.0371521046335364        0.0000000000000000                1
  -6.0210388218834154       -8.0318551487567120        0.0000000000000000                1
  -5.0184720845398800       -8.0416451450557638        0.0000000000000000                1
  -4.0121634774389801       -8.0594044173689312        0.0000000000000000                1
  -2.9985946973545876       -8.0910746781642384        0.0000000000000000                1
  -1.9929599167850029       -8.1398097498229482        0.0000000000000000                1
 -0.99708058057190529       -8.1727505038125106        0.0000000000000000                1
  -2.0590879046646672E-003  -8.1726130977130786        0.0000000000000000                1
  0.99395039859921019       -8.1393107292146549        0.0000000000000000                1
   1.9995098161287417       -8.0899996756959993        0.0000000000000000                1
   3.0125961974656081       -8.0571489320699285        0.0000000000000000                1
   4.0183273838036611       -8.0363114720332973        0.0000000000000000                1
   5.0202031647833119       -8.0191720327938203        0.0000000000000000                1
   6.0303745465452989       -8.0109028324387186        0.0000000000000000                1
   7.0560766472934482       -8.0071042314940151        0.0000000000000000                1
   8.1079868774180746       -8.0007723597439409        0.0000000000000000                1
   9.1724957301938126       -7.9654825931959330        0.0000000000000000                1
   10.331519074318461       -7.9417493848821428        0.0000000000000000                1
   11.039532930459034       -7.5678640843140395        0.0000000000000000                1
  -11.705231523907020       -6.6630752523791363        0.0000000000000000                1
  -11.085975973525631       -7.0303227045439707        0.0000000000000000                1
  -10.053582789140791       -7.0233888308505419        0.0000000000000000                1
  -9.0532503766099381       -7.0386768894309686        0.0000000000000000                1
  -8.0366171992997266       -7.0323908830495210        0.0000000000000000                1
  -7.0294114393064220       -7.0319007687528883        0.0000000000000000                1
  -6.0263178792845258       -7.0436693332991842        0.0000000000000000                1
  -5.0277931376080511       -7.0880573060306586        0.0000000000000000                1
  -4.0395140942882888       -7.1560839126734077        0.0000000000000000                1
  -2.9503313633019230       -7.1539474762575308        0.0000000000000000                1
  -1.9390107458386314       -7.3801481773269320        0.0000000000000000                1
 -0.98640079369036904       -7.4362828946408204        0.0000000000000000                1
  -1.1008612759038364E-002  -7.4359942584768115        0.0000000000000000                1
  0.94211809255927026       -7.3793049914232585        0.0000000000000000                1
   1.9542967417488972       -7.1524038083898347        0.0000000000000000                1
   3.0410871892889437       -7.1544974492146602        0.0000000000000000                1
   4.0276055391942025       -7.0853611100063949        0.0000000000000000                1
   5.0244798354594415       -7.0377360065835077        0.0000000000000000                1
   6.0258940218410464       -7.0193757853701930        0.0000000000000000                1
   7.0338412683189624       -7.0096656428977671        0.0000000000000000                1
   8.0570137507747859       -6.9996478316289830        0.0000000000000000                1
   9.0983792055220984       -6.9764636076674229        0.0000000000000000                1
   10.131303583218077       -6.9096107726800113        0.0000000000000000                1
   11.211972738625407       -6.8265526711562226        0.0000000000000000                1
   11.844702716952387       -6.4095512422701164        0.0000000000000000                1
  -11.802659974886028       -6.0366302845758559        0.0000000000000000                1
  -10.970942561630920       -5.9948139102726890        0.0000000000000000                1
  -10.021394061626367       -6.0157287991653208        0.0000000000000000                1
  -9.0273099702417348       -6.0193639408578097        0.0000000000000000                1
  -8.0298203464906432       -6.0229390764975692        0.0000000000000000                1
  -7.0370458023520630       -6.0338719829870007        0.0000000000000000                1
  -6.0541414807661527       -6.0704255238673683        0.0000000000000000                1
  -5.0046431343971909       -6.1054920967507842        0.0000000000000000                1
  -4.0682698367428216       -6.4201804770328561        0.0000000000000000                1
  -3.3002156632339656       -6.4965025129090419        0.0000000000000000                1
  -1.9212303667267807       -6.3427205712291679        0.0000000000000000                2
 -0.98058583193311299       -6.4822092883634328        0.0000000000000000                2
  -1.0270448302854340E-002  -6.4815248951303515        0.0000000000000000                2
  0.93676951449726387       -6.3392186712726115        0.0000000000000000                2
   2.3076726366667017       -6.4937404446536906        0.0000000000000000                1
   3.0717815281661265       -6.4183676380565995        0.0000000000000000                1
   4.0054896251815055       -6.1040065440981870        0.0000000000000000                1
   5.0530741164882507       -6.0679038475955887        0.0000000000000000                1
   6.0346511676243617       -6.0285669540062994        0.0000000000000000                1
   7.0272986685195509       -6.0126890084382794        0.0000000000000000                1
   8.0310623471758049       -6.0017488696146701        0.0000000000000000                1
   9.0455285378461721       -5.9833656572551996        0.0000000000000000                1
   10.063341743019500       -5.9417331965040852        0.0000000000000000                1
   11.044699445972411       -5.8551217869535988        0.0000000000000000                1
   11.918835559185611       -5.8022194553527751        0.0000000000000000                1
  -12.660805626646406       -4.6026891775813938        0.0000000000000000                1
  -12.052900540802934       -5.0267641603564508        0.0000000000000000                1
  -10.984501295177308       -5.0114220425938569        0.0000000000000000                1
  -10.006461078837290       -5.0107362650218725        0.0000000000000000                1
  -9.0215821983826370       -5.0128446094128858        0.0000000000000000                1
  -8.0355270281401268       -5.0149643769462351        0.0000000000000000                1
  -7.0649792305303896       -5.0389228582945229        0.0000000000000000                1
  -6.0725903863830295       -5.0607111406189933        0.0000000000000000                1
  -5.3013239319338510       -5.3389905670705291        0.0000000000000000                1
  -4.1533533366128310       -5.3761519135772096        0.0000000000000000                2
  -3.3808648625046316       -5.8267158540627468        0.0000000000000000                2
  -2.5361337711443759       -6.1728566536090392        0.0000000000000000                2
 -0.90380771750686062       -5.4059215256434232        0.0000000000000000                2
  -8.4331020836807227E-002  -5.4039552686717300        0.0000000000000000                2
   1.5598804830367379       -6.1649730247264127        0.0000000000000000                2
   2.3967208062391290       -5.8188494198339011        0.0000000000000000                2
   3.1597448140377966       -5.3718030395876815        0.0000000000000000                2
   4.3018196838382856       -5.3382430703441228        0.0000000000000000                1
   5.0722330266923024       -5.0598473297401592        0.0000000000000000                1
   6.0637948520638840       -5.0368447162835350        0.0000000000000000                1
   7.0342984473927146       -5.0105317224212484        0.0000000000000000                1
   8.0238660379253286       -5.0037480526916633        0.0000000000000000                1
   9.0226704411951424       -4.9912627752001359        0.0000000000000000                1
   10.026073030728453       -4.9623734787859402        0.0000000000000000                1
   11.030345787400098       -4.9044763101969160        0.0000000000000000                1
   12.140682517593442       -4.8057439256623482        0.0000000000000000                1
   12.760010374891516       -4.3112920421895380        0.0000000000000000                1
  -12.686662867787003       -3.9669380052287861        0.0000000000000000                1
  -11.896474669885631       -3.9768049660883555        0.0000000000000000                1
  -10.980028268234197       -4.0062856529218172        0.0000000000000000                1
  -10.005683820021995       -4.0089474179159454        0.0000000000000000                1
  -9.0314284465101906       -4.0106525036731098        0.0000000000000000                1
  -8.0731671199418678       -4.0063469279113439        0.0000000000000000                1
  -7.0778671817433967       -3.9575652553844116        0.0000000000000000                1
  -6.3228010297155599       -4.2561122592450422        0.0000000000000000                1
  -5.3619058468392398       -4.3141478343318758        0.0000000000000000                2
  -4.7819153569152668       -4.8903170527291175        0.0000000000000000                2
  -3.1078630738544062       -4.3559299317898059        0.0000000000000000                2
  -2.2294406377841236       -4.2955263069015350        0.0000000000000000                2
  -1.1807512329583227       -4.5248761039969541        0.0000000000000000                2
  0.18061274692920445       -4.5251286487736557        0.0000000000000000                2
   1.2345575716214343       -4.2863409143328326        0.0000000000000000                2
   2.1355164520941674       -4.3541831306158940        0.0000000000000000                2
   3.7857679107870528       -4.8869411102312226        0.0000000000000000                2
   4.3622244552202520       -4.3137887462250770        0.0000000000000000                2
   5.3225144653831054       -4.2560049080487952        0.0000000000000000                1
   6.0773795478902786       -3.9569936070838083        0.0000000000000000                1
   7.0727016148329431       -4.0043676223056774        0.0000000000000000                1
   8.0331409227635149       -4.0057170192252576        0.0000000000000000                1
   9.0160205032879830       -3.9963651183220037        0.0000000000000000                1
   10.011029327343117       -3.9754762530896595        0.0000000000000000                1
   11.006313746612999       -3.9254031116361552        0.0000000000000000                1
   11.948547010970975       -3.8094281790233313        0.0000000000000000                1
   12.772739480766985       -3.6695661890545743        0.0000000000000000                1
  -12.779543014754470       -3.0515829659898941        0.0000000000000000                1
  -11.900307761189698       -3.0134183808673582        0.0000000000000000                1
  -10.971033946769419       -3.0067772230187075        0.0000000000000000                1
  -10.008853769371052       -3.0075820737906946        0.0000000000000000                1
  -9.0530444167218960       -3.0109986422567983        0.0000000000000000                1
  -8.1501632864582625       -3.0098641141342695        0.0000000000000000                1
  -7.3894512588585863       -2.9711574183387790        0.0000000000000000                1
  -6.2644193018974219       -3.0035762204266496        0.0000000000000000                2
  -5.8806935622816621       -3.6466610466042328        0.0000000000000000                2
  -4.2719888889640245       -3.2325670678377891        0.0000000000000000                2
  -3.2210041843333768       -3.3037584641755555        0.0000000000000000                2
  -2.1176985121383480       -3.3731921950888637        0.0000000000000000                2
  -1.0387793691969731       -3.0737951387545714        0.0000000000000000                2
   3.0460678872470094E-002  -3.3598379874818596        0.0000000000000000                2
   1.0268186110061450       -3.1408780070823905        0.0000000000000000                2
   2.3557469105704882       -3.4052318915461606        0.0000000000000000                2
   3.3168831408328159       -3.2655587152157035        0.0000000000000000                2
   4.8789535927014223       -3.6492270753632838        0.0000000000000000                2
   5.2633543945743835       -3.0056190913920124        0.0000000000000000                2
   6.3891946328622593       -2.9710887442027687        0.0000000000000000                1
   7.1501001821225376       -3.0089729987326117        0.0000000000000000                1
   8.0546674473668478       -3.0082064518765002        0.0000000000000000                1
   9.0177878668475930       -2.9993792685473726        0.0000000000000000                1
   10.003315619033662       -2.9836482265495858        0.0000000000000000                1
   10.984214319396662       -2.9465903204165480        0.0000000000000000                1
   11.934282233090768       -2.8734913423540878        0.0000000000000000                1
   12.844235778074685       -2.7629002402198446        0.0000000000000000                1
  -12.877494593520540       -2.0602744149920049        0.0000000000000000                1
  -11.934798455055439       -2.0236767074936552        0.0000000000000000                1
  -10.979317286892273       -2.0091451412326555        0.0000000000000000                1
  -10.015905186671864       -2.0065253548330304        0.0000000000000000                1
  -9.0780031713808622       -2.0110437764063356        0.0000000000000000                1
  -8.2255368951806922       -2.0193666408897419        0.0000000000000000                1
  -7.5279664453105264       -2.0293033508759741        0.0000000000000000                1
  -6.6439754754903069       -2.1216892695617933        0.0000000000000000                2
  -5.3029590397523760       -1.9722808918993946        0.0000000000000000                2
  -4.3005754543152275       -2.1597456295987594        0.0000000000000000                2
  -3.2792765035312503       -2.2624413967825392        0.0000000000000000                2
  -2.0386689192552918       -2.1281631081832906        0.0000000000000000                2
  -1.0097943879215276       -2.2320939870001828        0.0000000000000000                2
   1.2453138805484171E-002  -2.1101222849397674        0.0000000000000000                2
   1.1866273717653009       -2.2058317167859571        0.0000000000000000                2
   2.1095070428625702       -2.0501019270389920        0.0000000000000000                2
   3.4363441428839159       -2.2859294598500228        0.0000000000000000                2
   4.3261599895135419       -2.0071206896006966        0.0000000000000000                2
   5.6430186831586422       -2.1244579210621861        0.0000000000000000                2
   6.5278190040512936       -2.0294482148078199        0.0000000000000000                1
   7.2256610960538845       -2.0189698696731138        0.0000000000000000                1
   8.0795502951345455       -2.0094234713231693        0.0000000000000000                1
   9.0230902240845392       -2.0007719069369876        0.0000000000000000                1
   10.001637536269930       -1.9897645769038226        0.0000000000000000                1
   10.984086766244472       -1.9665090385203361        0.0000000000000000                1
   11.954765144309015       -1.9205219889305649        0.0000000000000000                1
   12.916536570000300       -1.8409480655829709        0.0000000000000000                1
  -12.944894441401123       -1.0367088188106710        0.0000000000000000                1
  -11.964234651114614       -1.0157830240539130        0.0000000000000000                1
  -10.989799319901319       -1.0061964206743537        0.0000000000000000                1
  -10.023352155760533       -1.0040301763099868        0.0000000000000000                1
  -9.0971157461937597       -1.0073653210513105        0.0000000000000000                1
  -8.2728289326162763       -1.0161165135015242        0.0000000000000000                1
  -7.6187488323506845       -1.0311584703612617        0.0000000000000000                1
  -6.9041771570699879       -1.1119869337644981        0.0000000000000000                2
  -5.2086495135739819       -1.0357373190779355        0.0000000000000000                2
  -4.3352265524656124       -1.0464387750910840        0.0000000000000000                2
  -3.1315961095916691       -1.0302152546876331        0.0000000000000000                2
  -2.0607617399217011       -1.0605585939109092        0.0000000000000000                3
  -1.0000851475291952       -1.4999999975832994        0.0000000000000000                3
   6.0570597803737414E-002  -1.0607497381919182        0.0000000000000000                3
   1.0961205792032873       -1.0160212813277032        0.0000000000000000                2
   2.2694154938635402       -1.0418372420774542        0.0000000000000000                2
   3.2387243600750808       -1.0682182840354169        0.0000000000000000                2
   4.2241909923226819       -1.0559487790342261        0.0000000000000000                2
   5.9038295844862096       -1.1139868279558693        0.0000000000000000                2
   6.6186670495471596       -1.0312494658664628        0.0000000000000000                1
   7.2730089778136273       -1.0159232270065295        0.0000000000000000                1
   8.0983804576253426       -1.0064822785306493        0.0000000000000000                1
   9.0282447198271196       -1.0004882755538604        0.0000000000000000                1
   10.002960317825027      -0.99383236146478771        0.0000000000000000                1
   10.988910421112104      -0.98069865697424008        0.0000000000000000                1
   11.973302863250041      -0.95787679139147563        0.0000000000000000                1
   12.960251647676204      -0.93821822874819327        0.0000000000000000                1
  -12.968480301442936       -1.8427324547457641E-014   0.0000000000000000                1
  -11.975183924649450       -6.5852989332710115E-013   0.0000000000000000                1
  -10.994107673022780       -1.2676120167351119E-011   0.0000000000000000                1
  -10.026433648036816       -1.3872462658828186E-010   0.0000000000000000                1
  -9.1042199434025495       -8.8446460427261108E-010   0.0000000000000000                1
  -8.2900071002009454       -3.4067860823595723E-009   0.0000000000000000                1
  -7.6528106580330375       -8.1758939960953742E-009   0.0000000000000000                1
  -7.0000000000000000       -7.4142748418643513E-009   0.0000000000000000                2
  -5.1845990121522672        9.9759922037173036E-009   0.0000000000000000                2
  -4.0222103498352118        2.2108685337205740E-008   0.0000000000000000                2
  -3.2332161891741222        1.9411054125777562E-008   0.0000000000000000                2
  -2.4999999999998130        7.4898166753704254E-007   0.0000000000000000                3
  -1.0000018811005911        1.6943109156425489E-005   0.0000000000000000                3
  0.49999999875122203        6.1207302390932320E-005   0.0000000000000000                3
   1.2060874291209294        2.4525098305414021E-005   0.0000000000000000                2
   1.9792074023419868        4.3735454130577226E-005   0.0000000000000000                2
   3.1934252356292538        8.9126493018396304E-005   0.0000000000000000                2
   4.2021948363996966        1.3819069725650471E-004   0.0000000000000000                2
   5.9999999951044467        2.5227404430619969E-004   0.0000000000000000                2
   6.6527500483676336        1.3630828776215742E-004   0.0000000000000000                1
   7.2901858634601497        1.1879873264036698E-004   0.0000000000000000                1
   8.1052980571556041        2.8790053480600596E-004   0.0000000000000000                1
   9.0302382572660207        1.1951948656845300E-003   0.0000000000000000                1
   10.003411708811861        4.2816156779324870E-003   0.0000000000000000                1
   10.990042699593017        1.1725485526246113E-002   0.0000000000000000                1
   11.977710799852195        2.2950272806808159E-002   0.0000000000000000                1
   12.971952903010775        2.3184908533121440E-002   0.0000000000000000                1
  -12.944894441401141        1.0367088188106248        0.0000000000000000                1
  -11.964234651115298        1.0157830240521883        0.0000000000000000                1
  -10.989799319916695        1.0061964206381946        0.0000000000000000                1
  -10.023352155959433        1.0040301758700974        0.0000000000000000                1
  -9.0971157476812099        1.0073653179040758        0.0000000000000000                1
  -8.2728289391646470        1.0161164999228984        0.0000000000000000                1
  -7.6187488495165940        1.0311584339988826        0.0000000000000000                1
  -6.9041771669579193        1.1119868768177226        0.0000000000000000                2
  -5.2086498256198208        1.0357374212046886        0.0000000000000000                2
  -4.3352271204291775        1.0464390010979254        0.0000000000000000                2