 VARIABLES = "X", "Y", "Z"
 ZONE F=FEPOINT, ET=BRICK, N=         245 E=         144
  -3.0000000000000000       -2.0000000000000000        1.0000000021202999     
  -2.0000000000000000       -2.0000000000000000        1.0000052984641297     
  -1.0000000000000000       -2.0000000000000000        1.0000319911164259     
   0.0000000000000000       -2.0000000000000000        1.0000066136596002     
   1.0000000000000000       -2.0000000000000000        1.0000002781748221     
   2.0000000000000000       -2.0000000000000000        1.0000000000362443     
   3.0000000000000000       -2.0000000000000000        1.0000000000000000     
  -3.0000000000000000       -1.0000000000000000        1.0000039794304305     
  -2.0000000000000000       -1.0000000000000000        1.0093615208601068     
  -1.0000000000000000       -1.0000000000000000        1.0590828762363302     
   0.0000000000000000       -1.0000000000000000        1.0506816575518532     
   1.0000000000000000       -1.0000000000000000        1.0026129633010259     
   2.0000000000000000       -1.0000000000000000        1.0000027626853576     
   3.0000000000000000       -1.0000000000000000        1.0000000000161533     
  -3.0000000000000000        0.0000000000000000        1.0000172521372812     
  -2.0000000000000000        0.0000000000000000        1.0419498369988414     
  -1.0000000000000000        0.0000000000000000        1.3033606805740983     
   0.0000000000000000        0.0000000000000000        2.0085833021937924     
   1.0000000000000000        0.0000000000000000        1.3166877997714737     
   2.0000000000000000        0.0000000000000000        1.0049018112743269     
   3.0000000000000000        0.0000000000000000        1.0000000297517684     
  -3.0000000000000000        1.0000000000000000        1.0000001999896673     
  -2.0000000000000000        1.0000000000000000        1.0004670688177975     
  -1.0000000000000000        1.0000000000000000        1.0053012975222688     
   0.0000000000000000        1.0000000000000000        1.0531497006866781     
   1.0000000000000000        1.0000000000000000        1.1813771991490012     
   2.0000000000000000        1.0000000000000000        1.0032812358743197     
   3.0000000000000000        1.0000000000000000        1.0000000216081453     
  -3.0000000000000000        2.0000000000000000        1.0000000000053002     
  -2.0000000000000000        2.0000000000000000        1.0000000133172851     
  -1.0000000000000000        2.0000000000000000        1.0000003572513145     
   0.0000000000000000        2.0000000000000000        1.0000068822671997     
   1.0000000000000000        2.0000000000000000        1.0000408444108038     
   2.0000000000000000        2.0000000000000000        1.0000007517817242     
   3.0000000000000000        2.0000000000000000        1.0000000000044991     
  -3.0000000000000000       -2.0000000000000000        1.3333333351002499     
  -2.0000000000000000       -2.0000000000000000        1.3333377487201081     
  -1.0000000000000000       -2.0000000000000000        1.3333599925970216     
   0.0000000000000000       -2.0000000000000000        1.3333388447163337     
   1.0000000000000000       -2.0000000000000000        1.3333335651456850     
   2.0000000000000000       -2.0000000000000000        1.3333333333635369     
   3.0000000000000000       -2.0000000000000000        1.3333333333333335     
  -3.0000000000000000       -1.0000000000000000        1.3333366495253589     
  -2.0000000000000000       -1.0000000000000000        1.3411346007167557     
  -1.0000000000000000       -1.0000000000000000        1.3825690635302752     
   0.0000000000000000       -1.0000000000000000        1.3755680479598777     
   1.0000000000000000       -1.0000000000000000        1.3355108027508549     
   2.0000000000000000       -1.0000000000000000        1.3333356355711312     
   3.0000000000000000       -1.0000000000000000        1.3333333333467945     
  -3.0000000000000000        0.0000000000000000        1.3333477101144009     
  -2.0000000000000000        0.0000000000000000        1.3682915308323680     
  -1.0000000000000000        0.0000000000000000        1.5861339004784152     
   0.0000000000000000        0.0000000000000000        2.1738194184948272     
   1.0000000000000000        0.0000000000000000        1.5972398331428947     
   2.0000000000000000        0.0000000000000000        1.3374181760619392     
   3.0000000000000000        0.0000000000000000        1.3333333581264737     
  -3.0000000000000000        1.0000000000000000        1.3333334999913893     
  -2.0000000000000000        1.0000000000000000        1.3337225573481646     
  -1.0000000000000000        1.0000000000000000        1.3377510812685574     
   0.0000000000000000        1.0000000000000000        1.3776247505722319     
   1.0000000000000000        1.0000000000000000        1.4844809992908343     
   2.0000000000000000        1.0000000000000000        1.3360676965619331     
   3.0000000000000000        1.0000000000000000        1.3333333513401211     
  -3.0000000000000000        2.0000000000000000        1.3333333333377502     
  -2.0000000000000000        2.0000000000000000        1.3333333444310709     
  -1.0000000000000000        2.0000000000000000        1.3333336310427621     
   0.0000000000000000        2.0000000000000000        1.3333390685559998     
   1.0000000000000000        2.0000000000000000        1.3333673703423365     
   2.0000000000000000        2.0000000000000000        1.3333339598181035     
   3.0000000000000000        2.0000000000000000        1.3333333333370825     
  -3.0000000000000000       -2.0000000000000000        1.6666666680802000     
  -2.0000000000000000       -2.0000000000000000        1.6666701989760866     
  -1.0000000000000000       -2.0000000000000000        1.6666879940776174     
   0.0000000000000000       -2.0000000000000000        1.6666710757730669     
   1.0000000000000000       -2.0000000000000000        1.6666668521165482     
   2.0000000000000000       -2.0000000000000000        1.6666666666908296     
   3.0000000000000000       -2.0000000000000000        1.6666666666666667     
  -3.0000000000000000       -1.0000000000000000        1.6666693196202871     
  -2.0000000000000000       -1.0000000000000000        1.6729076805734047     
  -1.0000000000000000       -1.0000000000000000        1.7060552508242202     
   0.0000000000000000       -1.0000000000000000        1.7004544383679021     
   1.0000000000000000       -1.0000000000000000        1.6684086422006841     
   2.0000000000000000       -1.0000000000000000        1.6666685084569051     
   3.0000000000000000       -1.0000000000000000        1.6666666666774357     
  -3.0000000000000000        0.0000000000000000        1.6666781680915208     
  -2.0000000000000000        0.0000000000000000        1.6946332246658944     
  -1.0000000000000000        0.0000000000000000        1.8689071203827323     
   0.0000000000000000        0.0000000000000000        2.3390555347958619     
   1.0000000000000000        0.0000000000000000        1.8777918665143158     
   2.0000000000000000        0.0000000000000000        1.6699345408495514     
   3.0000000000000000        0.0000000000000000        1.6666666865011790     
  -3.0000000000000000        1.0000000000000000        1.6666667999931115     
  -2.0000000000000000        1.0000000000000000        1.6669780458785317     
  -1.0000000000000000        1.0000000000000000        1.6702008650148459     
   0.0000000000000000        1.0000000000000000        1.7020998004577854     
   1.0000000000000000        1.0000000000000000        1.7875847994326675     
   2.0000000000000000        1.0000000000000000        1.6688541572495466     
   3.0000000000000000        1.0000000000000000        1.6666666810720969     
  -3.0000000000000000        2.0000000000000000        1.6666666666702001     
  -2.0000000000000000        2.0000000000000000        1.6666666755448567     
  -1.0000000000000000        2.0000000000000000        1.6666669048342098     
   0.0000000000000000        2.0000000000000000        1.6666712548447999     
   1.0000000000000000        2.0000000000000000        1.6666938962738693     
   2.0000000000000000        2.0000000000000000        1.6666671678544829     
   3.0000000000000000        2.0000000000000000        1.6666666666696661     
  -3.0000000000000000       -2.0000000000000000        2.0000000010601502     
  -2.0000000000000000       -2.0000000000000000        2.0000026492320648     
  -1.0000000000000000       -2.0000000000000000        2.0000159955582131     
   0.0000000000000000       -2.0000000000000000        2.0000033068298002     
   1.0000000000000000       -2.0000000000000000        2.0000001390874109     
   2.0000000000000000       -2.0000000000000000        2.0000000000181224     
   3.0000000000000000       -2.0000000000000000        2.0000000000000000     
  -3.0000000000000000       -1.0000000000000000        2.0000019897152153     
  -2.0000000000000000       -1.0000000000000000        2.0046807604300536     
  -1.0000000000000000       -1.0000000000000000        2.0295414381181649     
   0.0000000000000000       -1.0000000000000000        2.0253408287759265     
   1.0000000000000000       -1.0000000000000000        2.0013064816505128     
   2.0000000000000000       -1.0000000000000000        2.0000013813426789     
   3.0000000000000000       -1.0000000000000000        2.0000000000080767     
  -3.0000000000000000        0.0000000000000000        2.0000086260686407     
  -2.0000000000000000        0.0000000000000000        2.0209749184994208     
  -1.0000000000000000        0.0000000000000000        2.1516803402870490     
   0.0000000000000000        0.0000000000000000        2.5042916510968962     
   1.0000000000000000        0.0000000000000000        2.1583438998857369     
   2.0000000000000000        0.0000000000000000        2.0024509056371635     
   3.0000000000000000        0.0000000000000000        2.0000000148758841     
  -3.0000000000000000        1.0000000000000000        2.0000000999948337     
  -2.0000000000000000        1.0000000000000000        2.0002335344088986     
  -1.0000000000000000        1.0000000000000000        2.0026506487611346     
   0.0000000000000000        1.0000000000000000        2.0265748503433390     
   1.0000000000000000        1.0000000000000000        2.0906885995745004     
   2.0000000000000000        1.0000000000000000        2.0016406179371597     
   3.0000000000000000        1.0000000000000000        2.0000000108040727     
  -3.0000000000000000        2.0000000000000000        2.0000000000026503     
  -2.0000000000000000        2.0000000000000000        2.0000000066586425     
  -1.0000000000000000        2.0000000000000000        2.0000001786256574     
   0.0000000000000000        2.0000000000000000        2.0000034411335998     
   1.0000000000000000        2.0000000000000000        2.0000204222054019     
   2.0000000000000000        2.0000000000000000        2.0000003758908620     
   3.0000000000000000        2.0000000000000000        2.0000000000022498     
  -3.0000000000000000       -2.0000000000000000        2.3333333340401001     
  -2.0000000000000000       -2.0000000000000000        2.3333350994880431     
  -1.0000000000000000       -2.0000000000000000        2.3333439970388086     
   0.0000000000000000       -2.0000000000000000        2.3333355378865335     
   1.0000000000000000       -2.0000000000000000        2.3333334260582741     
   2.0000000000000000       -2.0000000000000000        2.3333333333454149     
   3.0000000000000000       -2.0000000000000000        2.3333333333333335     
  -3.0000000000000000       -1.0000000000000000        2.3333346598101437     
  -2.0000000000000000       -1.0000000000000000        2.3364538402867021     
  -1.0000000000000000       -1.0000000000000000        2.3530276254121101     
   0.0000000000000000       -1.0000000000000000        2.3502272191839513     
   1.0000000000000000       -1.0000000000000000        2.3342043211003420     
   2.0000000000000000       -1.0000000000000000        2.3333342542284528     
   3.0000000000000000       -1.0000000000000000        2.3333333333387176     
  -3.0000000000000000        0.0000000000000000        2.3333390840457606     
  -2.0000000000000000        0.0000000000000000        2.3473166123329472     
  -1.0000000000000000        0.0000000000000000        2.4344535601913662     
   0.0000000000000000        0.0000000000000000        2.6695277673979310     
   1.0000000000000000        0.0000000000000000        2.4388959332571578     
   2.0000000000000000        0.0000000000000000        2.3349672704247757     
   3.0000000000000000        0.0000000000000000        2.3333333432505894     
  -3.0000000000000000        1.0000000000000000        2.3333333999965560     
  -2.0000000000000000        1.0000000000000000        2.3334890229392657     
  -1.0000000000000000        1.0000000000000000        2.3351004325074229     
   0.0000000000000000        1.0000000000000000        2.3510499002288929     
   1.0000000000000000        1.0000000000000000        2.3937923997163337     
   2.0000000000000000        1.0000000000000000        2.3344270786247732     
   3.0000000000000000        1.0000000000000000        2.3333333405360484     
  -3.0000000000000000        2.0000000000000000        2.3333333333351001     
  -2.0000000000000000        2.0000000000000000        2.3333333377724284     
  -1.0000000000000000        2.0000000000000000        2.3333334524171048     
   0.0000000000000000        2.0000000000000000        2.3333356274223997     
   1.0000000000000000        2.0000000000000000        2.3333469481369344     
   2.0000000000000000        2.0000000000000000        2.3333335839272413     
   3.0000000000000000        2.0000000000000000        2.3333333333348332     
  -3.0000000000000000       -2.0000000000000000        2.6666666670200501     
  -2.0000000000000000       -2.0000000000000000        2.6666675497440218     
  -1.0000000000000000       -2.0000000000000000        2.6666719985194041     
   0.0000000000000000       -2.0000000000000000        2.6666677689432667     
   1.0000000000000000       -2.0000000000000000        2.6666667130291368     
   2.0000000000000000       -2.0000000000000000        2.6666666666727075     
   3.0000000000000000       -2.0000000000000000        2.6666666666666665     
  -3.0000000000000000       -1.0000000000000000        2.6666673299050716     
  -2.0000000000000000       -1.0000000000000000        2.6682269201433511     
  -1.0000000000000000       -1.0000000000000000        2.6765138127060548     
   0.0000000000000000       -1.0000000000000000        2.6751136095919756     
   1.0000000000000000       -1.0000000000000000        2.6671021605501708     
   2.0000000000000000       -1.0000000000000000        2.6666671271142262     
   3.0000000000000000       -1.0000000000000000        2.6666666666693590     
  -3.0000000000000000        0.0000000000000000        2.6666695420228801     
  -2.0000000000000000        0.0000000000000000        2.6736583061664736     
  -1.0000000000000000        0.0000000000000000        2.7172267800956829     
   0.0000000000000000        0.0000000000000000        2.8347638836989653     
   1.0000000000000000        0.0000000000000000        2.7194479666285787     
   2.0000000000000000        0.0000000000000000        2.6674836352123878     
   3.0000000000000000        0.0000000000000000        2.6666666716252947     
  -3.0000000000000000        1.0000000000000000        2.6666666999982778     
  -2.0000000000000000        1.0000000000000000        2.6667445114696329     
  -1.0000000000000000        1.0000000000000000        2.6675502162537112     
   0.0000000000000000        1.0000000000000000        2.6755249501144465     
   1.0000000000000000        1.0000000000000000        2.6968961998581666     
   2.0000000000000000        1.0000000000000000        2.6672135393123866     
   3.0000000000000000        1.0000000000000000        2.6666666702680244     
  -3.0000000000000000        2.0000000000000000        2.6666666666675498     
  -2.0000000000000000        2.0000000000000000        2.6666666688862142     
  -1.0000000000000000        2.0000000000000000        2.6666667262085522     
   0.0000000000000000        2.0000000000000000        2.6666678137112001     
   1.0000000000000000        2.0000000000000000        2.6666734740684674     
   2.0000000000000000        2.0000000000000000        2.6666667919636207     
   3.0000000000000000        2.0000000000000000        2.6666666666674166     
  -3.0000000000000000       -2.0000000000000000        3.0000000000000000     
  -2.0000000000000000       -2.0000000000000000        3.0000000000000000     
  -1.0000000000000000       -2.0000000000000000        3.0000000000000000     
   0.0000000000000000       -2.0000000000000000        3.0000000000000000     
   1.0000000000000000       -2.0000000000000000        3.0000000000000000     
   2.0000000000000000       -2.0000000000000000        3.0000000000000000     
   3.0000000000000000       -2.0000000000000000        3.0000000000000000     
  -3.0000000000000000       -1.0000000000000000        3.0000000000000000     
  -2.0000000000000000       -1.0000000000000000        3.0000000000000000     
  -1.0000000000000000       -1.0000000000000000        3.0000000000000000     
   0.0000000000000000       -1.0000000000000000        3.0000000000000000     
   1.0000000000000000       -1.0000000000000000        3.0000000000000000     
   2.0000000000000000       -1.0000000000000000        3.0000000000000000     
   3.0000000000000000       -1.0000000000000000        3.0000000000000000     
  -3.0000000000000000        0.0000000000000000        3.0000000000000000     
  -2.0000000000000000        0.0000000000000000        3.0000000000000000     
  -1.0000000000000000        0.0000000000000000        3.0000000000000000     
   0.0000000000000000        0.0000000000000000        3.0000000000000000     
   1.0000000000000000        0.0000000000000000        3.0000000000000000     
   2.0000000000000000        0.0000000000000000        3.0000000000000000     
   3.0000000000000000        0.0000000000000000        3.0000000000000000     
  -3.0000000000000000        1.0000000000000000        3.0000000000000000     
  -2.0000000000000000        1.0000000000000000        3.0000000000000000     
  -1.0000000000000000        1.0000000000000000        3.0000000000000000     
   0.0000000000000000        1.0000000000000000        3.0000000000000000     
   1.0000000000000000        1.0000000000000000        3.0000000000000000     
   2.0000000000000000        1.0000000000000000        3.0000000000000000     
   3.0000000000000000        1.0000000000000000        3.0000000000000000     
  -3.0000000000000000        2.0000000000000000        3.0000000000000000     
  -2.0000000000000000        2.0000000000000000        3.0000000000000000     
  -1.0000000000000000        2.0000000000000000        3.0000000000000000     
   0.0000000000000000        2.0000000000000000        3.0000000000000000     
   1.0000000000000000        2.0000000000000000        3.0000000000000000     
   2.0000000000000000        2.0000000000000000        3.0000000000000000     
   3.0000000000000000        2.0000000000000000        3.0000000000000000     
      1        2        9        8       36       37       44       43
      2        3       10        9       37       38       45       44
      3        4       11       10       38       39       46       45
      4        5       12       11       39       40       47       46
      5        6       13       12       40       41       48       47
      6        7       14       13       41       42       49       48
      8        9       16       15       43       44       51       50
      9       10       17       16       44       45       52       51
     10       11       18       17       45       46       53       52
     11       12       19       18       46       47       54       53
     12       13       20       19       47       48       55       54
     13       14       21       20       48       49       56       55
     15       16       23       22       50       51       58       57
     16       17       24       23       51       52       59       58
     17       18       25       24       52       53       60       59
     18       19       26       25       53       54       61       60
     19       20       27       26       54       55       62       61
     20       21       28       27       55       56       63       62
     22       23       30       29       57       58       65       64
     23       24       31       30       58       59       66       65
     24       25       32       31       59       60       67       66
     25       26       33       32       60       61       68       67
     26       27       34       33       61       62       69       68
     27       28       35       34       62       63       70       69
     36       37       44       43       71       72       79       78
     37       38       45       44       72       73       80       79
     38       39       46       45       73       74       81       80
     39       40       47       46       74       75       82       81
     40       41       48       47       75       76       83       82
     41       42       49       48       76       77       84       83
     43       44       51       50       78       79       86       85
     44       45       52       51       79       80       87       86
     45       46       53       52       80       81       88       87
     46       47       54       53       81       82       89       88
     47       48       55       54       82       83       90       89
     48       49       56       55       83       84       91       90
     50       51       58       57       85       86       93       92
     51       52       59       58       86       87       94       93
     52       53       60       59       87       88       95       94
     53       54       61       60       88       89       96       95
     54       55       62       61       89       90       97       96
     55       56       63       62       90       91       98       97
     57       58       65       64       92       93      100       99
     58       59       66       65       93       94      101      100
     59       60       67       66       94       95      102      101
     60       61       68       67       95       96      103      102
     61       62       69       68       96       97      104      103
     62       63       70       69       97       98      105      104
     71       72       79       78      106      107      114      113
     72       73       80       79      107      108      115      114
     73       74       81       80      108      109      116      115
     74       75       82       81      109      110      117      116
     75       76       83       82      110      111      118      117
     76       77       84       83      111      112      119      118
     78       79       86       85      113      114      121      120
     79       80       87       86      114      115      122      121
     80       81       88       87      115      116      123      122
     81       82       89       88      116      117      124      123
     82       83       90       89      117      118      125      124
     83       84       91       90      118      119      126      125
     85       86       93       92      120      121      128      127
     86       87       94       93      121      122      129      128
     87       88       95       94      122      123      130      129
     88       89       96       95      123      124      131      130
     89       90       97       96      124      125      132      131
     90       91       98       97      125      126      133      132
     92       93      100       99      127      128      135      134
     93       94      101      100      128      129      136      135
     94       95      102      101      129      130      137      136
     95       96      103      102      130      131      138      137
     96       97      104      103      131      132      139      138
     97       98      105      104      132      133      140      139
    106      107      114      113      141      142      149      148
    107      108      115      114      142      143      150      149
    108      109      116      115      143      144      151      150
    109      110      117      116      144      145      152      151
    110      111      118      117      145      146      153      152
    111      112      119      118      146      147      154      153
    113      114      121      120      148      149      156      155
    114      115      122      121      149      150      157      156
    115      116      123      122      150      151      158      157
    116      117      124      123      151      152      159      158
    117      118      125      124      152      153      160      159
    118      119      126      125      153      154      161      160
    120      121      128      127      155      156      163      162
    121      122      129      128      156      157      164      163
    122      123      130      129      157      158      165      164
    123      124      131      130      158      159      166      165
    124      125      132      131      159      160      167      166
    125      126      133      132      160      161      168      167
    127      128      135      134      162      163      170      169
    128      129      136      135      163      164      171      170
    129      130      137      136      164      165      172      171
    130      131      138      137      165      166      173      172
    131      132      139      138      166      167      174      173
    132      133      140      139      167      168      175      174
    141      142      149      148      176      177      184      183
    142      143      150      149      177      178      185      184
    143      144      151      150      178      179      186      185
    144      145      152      151      179      180      187      186
    145      146      153      152      180      181      188      187
    146      147      154      153      181      182      189      188
    148      149      156      155      183      184      191      190
    149      150      157      156      184      185      192      191
    150      151      158      157      185      186      193      192
    151      152      159      158      186      187      194      193
    152      153      160      159      187      188      195      194
    153      154      161      160      188      189      196      195
    155      156      163      162      190      191      198      197
    156      157      164      163      191      192      199      198
    157      158      165      164      192      193      200      199
    158      159      166      165      193      194      201      200
    159      160      167      166      194      195      202      201
    160      161      168      167      195      196      203      202
    162      163      170      169      197      198      205      204
    163      164      171      170      198      199      206      205
    164      165      172      171      199      200      207      206
    165      166      173      172      200      201      208      207
    166      167      174      173      201      202      209      208
    167      168      175      174      202      203      210      209
    176      177      184      183      211      212      219      218
    177      178      185      184      212      213      220      219
    178      179      186      185      213      214      221      220
    179      180      187      186      214      215      222      221
    180      181      188      187      215      216      223      222
    181      182      189      188      216      217      224      223
    183      184      191      190      218      219      226      225
    184      185      192      191      219      220      227      226
    185      186      193      192      220      221      228      227
    186      187      194      193      221      222      229      228
    187      188      195      194      222      223      230      229
    188      189      196      195      223      224      231      230
    190      191      198      197      225      226      233      232
    191      192      199      198      226      227      234      233
    192      193      200      199      227      228      235      234
    193      194      201      200      228      229      236      235
    194      195      202      201      229      230      237      236
    195      196      203      202      230      231      238      237
    197      198      205      204      232      233      240      239
    198      199      206      205      233      234      241      240
    199      200      207      206      234      235      242      241
    200      201      208      207      235      236      243      242
    201      202      209      208      236      237      244      243
    202      203      210      209      237      238      245      244
