  TITLE = "SEM hex mesh" 
  VARIABLES = "x","y", "z"
 ZONE I=           5 ,J=           5 ,K=           5 , F=POINT
  -3.0000000000000000       -2.0000000000000000        1.0000000021202999                1
  -2.8535533905932735       -2.0000000000000000        1.0000000081466276                1
  -2.5000000000000000       -2.0000000000000000        1.0000002355006381                1
  -2.1464466094067260       -2.0000000000000000        1.0000023152195128                1
  -2.0000000000000000       -2.0000000000000000        1.0000052984641297                1
  -3.0000000000000004       -1.8535533905932733        1.0000000077660798                1
  -2.8535533905932726       -1.8535533905932733        1.0000000414424350                1
  -2.5000000000000004       -1.8535533905932735        1.0000009615174381                1
  -2.1464466094067260       -1.8535533905932733        1.0000103933037732                1
  -2.0000000000000000       -1.8535533905932733        1.0000223952424023                1
  -3.0000000000000000       -1.5000000000000000        1.0000002024194019                1
  -2.8535533905932735       -1.5000000000000002        1.0000008639093767                1
  -2.5000000000000000       -1.5000000000000000        1.0000200438028339                1
  -2.1464466094067260       -1.5000000000000000        1.0002166593611235                1
  -2.0000000000000000       -1.5000000000000000        1.0004668543823863                1
  -3.0000000000000000       -1.1464466094067263        1.0000018373184003                1
  -2.8535533905932735       -1.1464466094067263        1.0000084039358883                1
  -2.5000000000000000       -1.1464466094067260        1.0001949821247600                1
  -2.1464466094067260       -1.1464466094067263        1.0021076262264266                1
  -2.0000000000000000       -1.1464466094067263        1.0045415138643823                1
  -3.0000000000000000       -1.0000000000000000        1.0000039794304305                1
  -2.8535533905932735       -1.0000000000000000        1.0000173231033513                1
  -2.5000000000000000       -1.0000000000000000        1.0004019183527233                1
  -2.1464466094067260       -1.0000000000000000        1.0043444770955179                1
  -2.0000000000000000       -1.0000000000000000        1.0093615208601068                1
  -3.0000000000000000       -2.0000000000000000        1.0488155385374569                1
  -2.8535533905932735       -2.0000000000000000        1.0488155444166953                1
  -2.5000000000000000       -2.0000000000000000        1.0488157662215019                1
  -2.1464466094067260       -2.0000000000000000        1.0488177951790802                1
  -2.0000000000000000       -2.0000000000000000        1.0488207056093539                1
  -3.0000000000000004       -1.8535533905932733        1.0488155440454359                1
  -2.8535533905932726       -1.8535533905932733        1.0488155768998264                1
  -2.5000000000000004       -1.8535533905932735        1.0488164745178521                1
  -2.1464466094067260       -1.8535533905932733        1.0488256760953323                1
  -2.0000000000000000       -1.8535533905932733        1.0488373850934249                1
  -3.0000000000000000       -1.5000000000000000        1.0488157339477049                1
  -2.8535533905932735       -1.5000000000000002        1.0488163792921856                1
  -2.5000000000000000       -1.5000000000000000        1.0488350910472486                1
  -2.1464466094067260       -1.5000000000000000        1.0490269076585601                1
  -2.0000000000000000       -1.5000000000000000        1.0492709959777304                1
  -3.0000000000000000       -1.1464466094067263        1.0488173289424674                1
  -2.8535533905932735       -1.1464466094067263        1.0488237352834777                1
  -2.5000000000000000       -1.1464466094067260        1.0490057595151576                1
  -2.1464466094067260       -1.1464466094067263        1.0508717202428759                1
  -2.0000000000000000       -1.1464466094067263        1.0532462021154556                1
  -3.0000000000000000       -1.0000000000000000        1.0488194187703237                1
  -2.8535533905932735       -1.0000000000000000        1.0488324367539683                1
  -2.5000000000000000       -1.0000000000000000        1.0492076448916297                1
  -2.1464466094067260       -1.0000000000000000        1.0530539745743792                1
  -2.0000000000000000       -1.0000000000000000        1.0579485634975401                1
  -3.0000000000000000       -2.0000000000000000        1.1666666686102749                1
  -2.8535533905932735       -2.0000000000000000        1.1666666741344085                1
  -2.5000000000000000       -2.0000000000000000        1.1666668825422515                1
  -2.1464466094067260       -2.0000000000000000        1.1666687889512199                1
  -2.0000000000000000       -2.0000000000000000        1.1666715235921188                1
  -3.0000000000000004       -1.8535533905932733        1.1666666737855731                1
  -2.8535533905932726       -1.8535533905932733        1.1666667046555654                1
  -2.5000000000000004       -1.8535533905932735        1.1666675480576516                1
  -2.1464466094067260       -1.8535533905932733        1.1666761938617920                1
  -2.0000000000000000       -1.8535533905932733        1.1666871956388687                1
  -3.0000000000000000       -1.5000000000000000        1.1666668522177850                1
  -2.8535533905932735       -1.5000000000000002        1.1666674585835952                1
  -2.5000000000000000       -1.5000000000000000        1.1666850401525977                1
  -2.1464466094067260       -1.5000000000000000        1.1668652710810299                1
  -2.0000000000000000       -1.5000000000000000        1.1670946165171874                1
  -3.0000000000000000       -1.1464466094067263        1.1666683508752003                1
  -2.8535533905932735       -1.1464466094067263        1.1666743702745643                1
  -2.5000000000000000       -1.1464466094067260        1.1668454002810300                1
  -2.1464466094067260       -1.1464466094067263        1.1685986573742244                1
  -2.0000000000000000       -1.1464466094067263        1.1708297210423504                1
  -3.0000000000000000       -1.0000000000000000        1.1666703144778947                1
  -2.8535533905932735       -1.0000000000000000        1.1666825461780721                1
  -2.5000000000000000       -1.0000000000000000        1.1670350918233297                1
  -2.1464466094067260       -1.0000000000000000        1.1706491040042246                1
  -2.0000000000000000       -1.0000000000000000        1.1752480607884312                1
  -3.0000000000000000       -2.0000000000000000        1.2845177986830929                1
  -2.8535533905932735       -2.0000000000000000        1.2845178038521219                1
  -2.5000000000000000       -2.0000000000000000        1.2845179988630013                1
  -2.1464466094067260       -2.0000000000000000        1.2845197827233599                1
  -2.0000000000000000       -2.0000000000000000        1.2845223415748839                1
  -3.0000000000000004       -1.8535533905932733        1.2845178035257103                1
  -2.8535533905932726       -1.8535533905932733        1.2845178324113045                1
  -2.5000000000000004       -1.8535533905932735        1.2845186215974511                1
  -2.1464466094067260       -1.8535533905932733        1.2845267116282519                1
  -2.0000000000000000       -1.8535533905932733        1.2845370061843127                1
  -3.0000000000000000       -1.5000000000000000        1.2845179704878653                1
  -2.8535533905932735       -1.5000000000000002        1.2845185378750050                1
  -2.5000000000000000       -1.5000000000000000        1.2845349892579470                1
  -2.1464466094067260       -1.5000000000000000        1.2847036345034997                1
  -2.0000000000000000       -1.5000000000000000        1.2849182370566443                1
  -3.0000000000000000       -1.1464466094067263        1.2845193728079332                1
  -2.8535533905932735       -1.1464466094067263        1.2845250052656509                1
  -2.5000000000000000       -1.1464466094067260        1.2846850410469022                1
  -2.1464466094067260       -1.1464466094067263        1.2863255945055729                1
  -2.0000000000000000       -1.1464466094067263        1.2884132399692452                1
  -3.0000000000000000       -1.0000000000000000        1.2845212101854657                1
  -2.8535533905932735       -1.0000000000000000        1.2845326556021757                1
  -2.5000000000000000       -1.0000000000000000        1.2848625387550299                1
  -2.1464466094067260       -1.0000000000000000        1.2882442334340700                1
  -2.0000000000000000       -1.0000000000000000        1.2925475580793224                1
  -3.0000000000000000       -2.0000000000000000        1.3333333351002499                1
  -2.8535533905932735       -2.0000000000000000        1.3333333401221896                1
  -2.5000000000000000       -2.0000000000000000        1.3333335295838651                1
  -2.1464466094067260       -2.0000000000000000        1.3333352626829273                1
  -2.0000000000000000       -2.0000000000000000        1.3333377487201081                1
  -3.0000000000000004       -1.8535533905932733        1.3333333398050664                1
  -2.8535533905932726       -1.8535533905932733        1.3333333678686958                1
  -2.5000000000000004       -1.8535533905932735        1.3333341345978651                1
  -2.1464466094067260       -1.8535533905932733        1.3333419944198110                1
  -2.0000000000000000       -1.8535533905932733        1.3333519960353353                1
  -3.0000000000000000       -1.5000000000000000        1.3333335020161683                1
  -2.8535533905932735       -1.5000000000000002        1.3333340532578140                1
  -2.5000000000000000       -1.5000000000000000        1.3333500365023616                1
  -2.1464466094067260       -1.5000000000000000        1.3335138828009363                1
  -2.0000000000000000       -1.5000000000000000        1.3337223786519885                1
  -3.0000000000000000       -1.1464466094067263        1.3333348644320002                1
  -2.8535533905932735       -1.1464466094067263        1.3333403366132401                1
  -2.5000000000000000       -1.1464466094067260        1.3334958184373000                1
  -2.1464466094067260       -1.1464466094067263        1.3350896885220220                1
  -2.0000000000000000       -1.1464466094067263        1.3371179282203185                1
  -3.0000000000000000       -1.0000000000000000        1.3333366495253587                1
  -2.8535533905932735       -1.0000000000000000        1.3333477692527929                1
  -2.5000000000000000       -1.0000000000000000        1.3336682652939360                1
  -2.1464466094067260       -1.0000000000000000        1.3369537309129316                1
  -2.0000000000000000       -1.0000000000000000        1.3411346007167557                1
 ZONE I=           5 ,J=           5 ,K=           5 , F=POINT
  -2.0000000000000000       -2.0000000000000000        1.0000052984641297                1
  -1.8535533905932737       -2.0000000000000000        1.0000101306822216                1
  -1.5000000000000000       -2.0000000000000000        1.0000270313385562                1
  -1.1464466094067263       -2.0000000000000000        1.0000352521348963                1
  -1.0000000000000000       -2.0000000000000000        1.0000319911164259                1
  -2.0000000000000000       -1.8535533905932733        1.0000223952424023                1
  -1.8535533905932733       -1.8535533905932733        1.0000423988652021                1
  -1.5000000000000000       -1.8535533905932735        1.0001166115812083                1
  -1.1464466094067263       -1.8535533905932733        1.0001520253249603                1
  -1.0000000000000000       -1.8535533905932733        1.0001370513620398                1
  -2.0000000000000000       -1.5000000000000000        1.0004668543823863                1
  -1.8535533905932733       -1.5000000000000002        1.0008838634966266                1
  -1.5000000000000000       -1.5000000000000000        1.0024314564319807                1
  -1.1464466094067263       -1.5000000000000000        1.0031785895804353                1
  -1.0000000000000000       -1.5000000000000000        1.0028813082135108                1
  -2.0000000000000000       -1.1464466094067263        1.0045415138643823                1
  -1.8535533905932737       -1.1464466094067263        1.0085983130017346                1
  -1.5000000000000000       -1.1464466094067260        1.0236619963836664                1
  -1.1464466094067263       -1.1464466094067263        1.0310746691068107                1
  -1.0000000000000000       -1.1464466094067263        1.0284245486344230                1
  -2.0000000000000000       -1.0000000000000000        1.0093615208601068                1
  -1.8535533905932737       -1.0000000000000000        1.0177241061385125                1
  -1.5000000000000000       -1.0000000000000000        1.0487861854379432                1
  -1.1464466094067263       -1.0000000000000000        1.0642455679297647                1
  -1.0000000000000000       -1.0000000000000000        1.0590828762363302                1
  -2.0000000000000000       -2.0000000000000000        1.0488207056093539                1
  -1.8535533905932737       -2.0000000000000000        1.0488254198837865                1
  -1.5000000000000000       -2.0000000000000000        1.0488419080328184                1
  -1.1464466094067263       -2.0000000000000000        1.0488499281778667                1
  -1.0000000000000000       -2.0000000000000000        1.0488467467535794                1
  -2.0000000000000000       -1.8535533905932733        1.0488373850934249                1
  -1.8535533905932733       -1.8535533905932733        1.0488569004724355                1
  -1.5000000000000000       -1.8535533905932735        1.0489293018216694                1
  -1.1464466094067263       -1.8535533905932733        1.0489638511949717                1
  -1.0000000000000000       -1.8535533905932733        1.0489492427130676                1
  -2.0000000000000000       -1.5000000000000000        1.0492709959777304                1
  -1.8535533905932733       -1.5000000000000002        1.0496778268301588                1
  -1.5000000000000000       -1.5000000000000000        1.0511876464758254                1
  -1.1464466094067263       -1.5000000000000000        1.0519165437715523                1
  -1.0000000000000000       -1.5000000000000000        1.0516265183793321                1
  -2.0000000000000000       -1.1464466094067263        1.0532462021154556                1
  -1.8535533905932737       -1.1464466094067263        1.0572039838396898                1
  -1.5000000000000000       -1.1464466094067260        1.0718999963288780                1
  -1.1464466094067263       -1.1464466094067263        1.0791317422541979                1
  -1.0000000000000000       -1.1464466094067263        1.0765463053080937                1
  -2.0000000000000000       -1.0000000000000000        1.0579485634975401                1
  -1.8535533905932737       -1.0000000000000000        1.0661070367326295                1
  -1.5000000000000000       -1.0000000000000000        1.0964109599996394                1
  -1.1464466094067263       -1.0000000000000000        1.1114930134665528                1
  -1.0000000000000000       -1.0000000000000000        1.1064563315554377                1
  -2.0000000000000000       -2.0000000000000000        1.1666715235921188                1
  -1.8535533905932737       -2.0000000000000000        1.1666759531253696                1
  -1.5000000000000000       -2.0000000000000000        1.1666914453936765                1
  -1.1464466094067263       -2.0000000000000000        1.1666989811236550                1
  -1.0000000000000000       -2.0000000000000000        1.1666959918567237                1
  -2.0000000000000000       -1.8535533905932733        1.1666871956388687                1
  -1.8535533905932733       -1.8535533905932733        1.1667055322931019                1
  -1.5000000000000000       -1.8535533905932735        1.1667735606161076                1
  -1.1464466094067263       -1.8535533905932733        1.1668060232145470                1
  -1.0000000000000000       -1.8535533905932733        1.1667922970818698                1
  -2.0000000000000000       -1.5000000000000000        1.1670946165171874                1
  -1.8535533905932733       -1.5000000000000002        1.1674768748719078                1
  -1.5000000000000000       -1.5000000000000000        1.1688955017293157                1
  -1.1464466094067263       -1.5000000000000000        1.1695803737820656                1
  -1.0000000000000000       -1.5000000000000000        1.1693078658623850                1
  -2.0000000000000000       -1.1464466094067263        1.1708297210423504                1
  -1.8535533905932737       -1.1464466094067263        1.1745484535849233                1
  -1.5000000000000000       -1.1464466094067260        1.1883568300183609                1
  -1.1464466094067263       -1.1464466094067263        1.1951517800145763                1
  -1.0000000000000000       -1.1464466094067263        1.1927225029148878                1
  -2.0000000000000000       -1.0000000000000000        1.1752480607884312                1
  -1.8535533905932737       -1.0000000000000000        1.1829137639603031                1
  -1.5000000000000000       -1.0000000000000000        1.2113873366514478                1
  -1.1464466094067263       -1.0000000000000000        1.2255584372689510                1
  -1.0000000000000000       -1.0000000000000000        1.2208259698833026                1
  -2.0000000000000000       -2.0000000000000000        1.2845223415748839                1
  -1.8535533905932737       -2.0000000000000000        1.2845264863669530                1
  -1.5000000000000000       -2.0000000000000000        1.2845409827545347                1
  -1.1464466094067263       -2.0000000000000000        1.2845480340694431                1
  -1.0000000000000000       -2.0000000000000000        1.2845452369598682                1
  -2.0000000000000000       -1.8535533905932733        1.2845370061843127                1
  -1.8535533905932733       -1.8535533905932733        1.2845541641137683                1
  -1.5000000000000000       -1.8535533905932735        1.2846178194105458                1
  -1.1464466094067263       -1.8535533905932733        1.2846481952341222                1
  -1.0000000000000000       -1.8535533905932733        1.2846353514506719                1
  -2.0000000000000000       -1.5000000000000000        1.2849182370566443                1
  -1.8535533905932733       -1.5000000000000002        1.2852759229136566                1
  -1.5000000000000000       -1.5000000000000000        1.2866033569828059                1
  -1.1464466094067263       -1.5000000000000000        1.2872442037925791                1
  -1.0000000000000000       -1.5000000000000000        1.2869892133454377                1
  -2.0000000000000000       -1.1464466094067263        1.2884132399692452                1
  -1.8535533905932737       -1.1464466094067263        1.2918929233301570                1
  -1.5000000000000000       -1.1464466094067260        1.3048136637078436                1
  -1.1464466094067263       -1.1464466094067263        1.3111718177749547                1
  -1.0000000000000000       -1.1464466094067263        1.3088987005216817                1
  -2.0000000000000000       -1.0000000000000000        1.2925475580793224                1
  -1.8535533905932737       -1.0000000000000000        1.2997204911879767                1
  -1.5000000000000000       -1.0000000000000000        1.3263637133032564                1
  -1.1464466094067263       -1.0000000000000000        1.3396238610713491                1
  -1.0000000000000000       -1.0000000000000000        1.3351956082111678                1
  -2.0000000000000000       -2.0000000000000000        1.3333377487201081                1
  -1.8535533905932737       -2.0000000000000000        1.3333417755685180                1
  -1.5000000000000000       -2.0000000000000000        1.3333558594487969                1
  -1.1464466094067263       -2.0000000000000000        1.3333627101124135                1
  -1.0000000000000000       -2.0000000000000000        1.3333599925970216                1
  -2.0000000000000000       -1.8535533905932733        1.3333519960353353                1
  -1.8535533905932733       -1.8535533905932733        1.3333686657210018                1
  -1.5000000000000000       -1.8535533905932735        1.3334305096510071                1
  -1.1464466094067263       -1.8535533905932733        1.3334600211041336                1
  -1.0000000000000000       -1.8535533905932733        1.3334475428016999                1
  -2.0000000000000000       -1.5000000000000000        1.3337223786519885                1
  -1.8535533905932733       -1.5000000000000002        1.3340698862471889                1
  -1.5000000000000000       -1.5000000000000000        1.3353595470266506                1
  -1.1464466094067263       -1.5000000000000000        1.3359821579836961                1
  -1.0000000000000000       -1.5000000000000000        1.3357344235112589                1
  -2.0000000000000000       -1.1464466094067263        1.3371179282203185                1
  -1.8535533905932737       -1.1464466094067263        1.3404985941681122                1
  -1.5000000000000000       -1.1464466094067260        1.3530516636530554                1
  -1.1464466094067263       -1.1464466094067263        1.3592288909223422                1
  -1.0000000000000000       -1.1464466094067263        1.3570204571953526                1
  -2.0000000000000000       -1.0000000000000000        1.3411346007167557                1
  -1.8535533905932737       -1.0000000000000000        1.3481034217820937                1
  -1.5000000000000000       -1.0000000000000000        1.3739884878649526                1
  -1.1464466094067263       -1.0000000000000000        1.3868713066081373                1
  -1.0000000000000000       -1.0000000000000000        1.3825690635302752                1
 ZONE I=           5 ,J=           5 ,K=           5 , F=POINT
  -1.0000000000000000       -2.0000000000000000        1.0000319911164259                1
 -0.85355339059327373       -2.0000000000000000        1.0000252763919628                1
 -0.50000000000000000       -2.0000000000000000        1.0000112158324568                1
 -0.14644660940672627       -2.0000000000000000        1.0000069996674832                1
   0.0000000000000000       -2.0000000000000000        1.0000066136596002                1
  -1.0000000000000000       -1.8535533905932733        1.0001370513620398                1
 -0.85355339059327373       -1.8535533905932733        1.0001102371354691                1
 -0.50000000000000000       -1.8535533905932735        1.0000506563019473                1
 -0.14644660940672621       -1.8535533905932733        1.0000363004277641                1
   0.0000000000000000       -1.8535533905932733        1.0000349270080615                1
  -1.0000000000000000       -1.5000000000000000        1.0028813082135108                1
 -0.85355339059327351       -1.5000000000000002        1.0023529988429327                1
 -0.50000000000000000       -1.5000000000000000        1.0012871062516020                1
 -0.14644660940672627       -1.5000000000000000        1.0012153260932841                1
   0.0000000000000000       -1.5000000000000000        1.0012172530502343                1
  -1.0000000000000000       -1.1464466094067263        1.0284245486344230                1
 -0.85355339059327373       -1.1464466094067263        1.0237839035492484                1
 -0.50000000000000000       -1.1464466094067260        1.0162796049288738                1
 -0.14644660940672627       -1.1464466094067263        1.0192810946900213                1
   0.0000000000000000       -1.1464466094067263        1.0197970463226687                1
  -1.0000000000000000       -1.0000000000000000        1.0590828762363302                1
 -0.85355339059327373       -1.0000000000000000        1.0501358571208166                1
 -0.50000000000000000       -1.0000000000000000        1.0382218318127814                1
 -0.14644660940672627       -1.0000000000000000        1.0490002963749196                1
   0.0000000000000000       -1.0000000000000000        1.0506816575518532                1
  -1.0000000000000000       -2.0000000000000000        1.0488467467535794                1
 -0.85355339059327373       -2.0000000000000000        1.0488401959205547                1
 -0.50000000000000000       -2.0000000000000000        1.0488264785479264                1
 -0.14644660940672627       -2.0000000000000000        1.0488223652901303                1
   0.0000000000000000       -2.0000000000000000        1.0488219887038381                1
  -1.0000000000000000       -1.8535533905932733        1.0489492427130676                1
 -0.85355339059327373       -1.8535533905932733        1.0489230829619245                1
 -0.50000000000000000       -1.8535533905932735        1.0488649563635786                1
 -0.14644660940672621       -1.8535533905932733        1.0488509508842452                1
   0.0000000000000000       -1.8535533905932733        1.0488496109866523                1
  -1.0000000000000000       -1.5000000000000000        1.0516265183793321                1
 -0.85355339059327351       -1.5000000000000002        1.0511111038614271                1
 -0.50000000000000000       -1.5000000000000000        1.0500712273294286                1
 -0.14644660940672627       -1.5000000000000000        1.0500011991645788                1
   0.0000000000000000       -1.5000000000000000        1.0500030790888102                1
  -1.0000000000000000       -1.1464466094067263        1.0765463053080937                1
 -0.85355339059327373       -1.1464466094067263        1.0720189280126164                1
 -0.50000000000000000       -1.1464466094067260        1.0646977925737302                1
 -0.14644660940672627       -1.1464466094067263        1.0676260226684293                1
   0.0000000000000000       -1.1464466094067263        1.0681293810732069                1
  -1.0000000000000000       -1.0000000000000000        1.1064563315554377                1
 -0.85355339059327373       -1.0000000000000000        1.0977276892088847                1
 -0.50000000000000000       -1.0000000000000000        1.0861044586693074                1
 -0.14644660940672627       -1.0000000000000000        1.0966198449664897                1
   0.0000000000000000       -1.0000000000000000        1.0982601678694983                1
  -1.0000000000000000       -2.0000000000000000        1.1666959918567237                1
 -0.85355339059327373       -2.0000000000000000        1.1666898366926326                1
 -0.50000000000000000       -2.0000000000000000        1.1666769478464187                1
 -0.14644660940672627       -2.0000000000000000        1.1666730830285261                1
   0.0000000000000000       -2.0000000000000000        1.1666727291879668                1
  -1.0000000000000000       -1.8535533905932733        1.1667922970818698                1
 -0.85355339059327373       -1.8535533905932733        1.1667677173741799                1
 -0.50000000000000000       -1.8535533905932735        1.1667131016101184                1
 -0.14644660940672621       -1.8535533905932733        1.1666999420587838                1
   0.0000000000000000       -1.8535533905932733        1.1666986830907231                1
  -1.0000000000000000       -1.5000000000000000        1.1693078658623850                1
 -0.85355339059327351       -1.5000000000000002        1.1688235822726882                1
 -0.50000000000000000       -1.5000000000000000        1.1678465140639684                1
 -0.14644660940672627       -1.5000000000000000        1.1677807155855104                1
   0.0000000000000000       -1.5000000000000000        1.1677824819627147                1
  -1.0000000000000000       -1.1464466094067263        1.1927225029148878                1
 -0.85355339059327373       -1.1464466094067263        1.1884685782534776                1
 -0.50000000000000000       -1.1464466094067260        1.1815896378514676                1
 -0.14644660940672627       -1.1464466094067263        1.1843410034658528                1
   0.0000000000000000       -1.1464466094067263        1.1848139591291129                1
  -1.0000000000000000       -1.0000000000000000        1.2208259698833026                1
 -0.85355339059327373       -1.0000000000000000        1.2126245356940819                1
 -0.50000000000000000       -1.0000000000000000        1.2017033458283830                1
 -0.14644660940672627       -1.0000000000000000        1.2115836050103430                1
   0.0000000000000000       -1.0000000000000000        1.2131248527558653                1
  -1.0000000000000000       -2.0000000000000000        1.2845452369598682                1
 -0.85355339059327373       -2.0000000000000000        1.2845394774647105                1