 VARIABLES = "X", "Y", "Z"
 ZONE F=FEPOINT, ET=BRICK, N=         108 E=          50
   0.0000000000000000        0.0000000000000000        0.0000000000000000     
   1.0000000000000000        0.0000000000000000        0.0000000000000000     
   2.0000000000000000        0.0000000000000000        0.0000000000000000     
   3.0000000000000000        0.0000000000000000        0.0000000000000000     
   4.0000000000000000        0.0000000000000000        0.0000000000000000     
   5.0000000000000000        0.0000000000000000        0.0000000000000000     
   0.0000000000000000        1.0000000000000000        0.0000000000000000     
   1.0000000000000000        1.0000000000000000        0.0000000000000000     
   2.0000000000000000        1.0000000000000000        0.0000000000000000     
   3.0000000000000000        1.0000000000000000        0.0000000000000000     
   4.0000000000000000        1.0000000000000000        0.0000000000000000     
   5.0000000000000000        1.0000000000000000        0.0000000000000000     
   0.0000000000000000        2.0000000000000000        0.0000000000000000     
   1.0000000000000000        2.0000000000000000        0.0000000000000000     
   2.0000000000000000        2.0000000000000000        0.0000000000000000     
   3.0000000000000000        2.0000000000000000        0.0000000000000000     
   4.0000000000000000        2.0000000000000000        0.0000000000000000     
   5.0000000000000000        2.0000000000000000        0.0000000000000000     
   0.0000000000000000        3.0000000000000000        0.0000000000000000     
   1.0000000000000000        3.0000000000000000        0.0000000000000000     
   2.0000000000000000        3.0000000000000000        0.0000000000000000     
   3.0000000000000000        3.0000000000000000        0.0000000000000000     
   4.0000000000000000        3.0000000000000000        0.0000000000000000     
   5.0000000000000000        3.0000000000000000        0.0000000000000000     
   0.0000000000000000        4.0000000000000000        0.0000000000000000     
   1.0000000000000000        4.0000000000000000        0.0000000000000000     
   2.0000000000000000        4.0000000000000000        0.0000000000000000     
   3.0000000000000000        4.0000000000000000        0.0000000000000000     
   4.0000000000000000        4.0000000000000000        0.0000000000000000     
   5.0000000000000000        4.0000000000000000        0.0000000000000000     
   0.0000000000000000        5.0000000000000000        0.0000000000000000     
   1.0000000000000000        5.0000000000000000        0.0000000000000000     
   2.0000000000000000        5.0000000000000000        0.0000000000000000     
   3.0000000000000000        5.0000000000000000        0.0000000000000000     
   4.0000000000000000        5.0000000000000000        0.0000000000000000     
   5.0000000000000000        5.0000000000000000        0.0000000000000000     
   0.0000000000000000        0.0000000000000000        1.0000000000000000     
   1.0000000000000000        0.0000000000000000        1.0000000000000000     
   2.0000000000000000        0.0000000000000000        1.0000000000000000     
   3.0000000000000000        0.0000000000000000        1.0000000000000000     
   4.0000000000000000        0.0000000000000000        1.0000000000000000     
   5.0000000000000000        0.0000000000000000        1.0000000000000000     
   0.0000000000000000        1.0000000000000000        1.0000000000000000     
   1.0000000000000000        1.0000000000000000        1.0000000000000000     
   2.0000000000000000        1.0000000000000000        1.0000000000000000     
   3.0000000000000000        1.0000000000000000        1.0000000000000000     
   4.0000000000000000        1.0000000000000000        1.0000000000000000     
   5.0000000000000000        1.0000000000000000        1.0000000000000000     
   0.0000000000000000        2.0000000000000000        1.0000000000000000     
   1.0000000000000000        2.0000000000000000        1.0000000000000000     
   2.0000000000000000        2.0000000000000000        1.0000000000000000     
   3.0000000000000000        2.0000000000000000        1.0000000000000000     
   4.0000000000000000        2.0000000000000000        1.0000000000000000     
   5.0000000000000000        2.0000000000000000        1.0000000000000000     
   0.0000000000000000        3.0000000000000000        1.0000000000000000     
   1.0000000000000000        3.0000000000000000        1.0000000000000000     
   2.0000000000000000        3.0000000000000000        1.0000000000000000     
   3.0000000000000000        3.0000000000000000        1.0000000000000000     
   4.0000000000000000        3.0000000000000000        1.0000000000000000     
   5.0000000000000000        3.0000000000000000        1.0000000000000000     
   0.0000000000000000        4.0000000000000000        1.0000000000000000     
   1.0000000000000000        4.0000000000000000        1.0000000000000000     
   2.0000000000000000        4.0000000000000000        1.0000000000000000     
   3.0000000000000000        4.0000000000000000        1.0000000000000000     
   4.0000000000000000        4.0000000000000000        1.0000000000000000     
   5.0000000000000000        4.0000000000000000        1.0000000000000000     
   0.0000000000000000        5.0000000000000000        1.0000000000000000     
   1.0000000000000000        5.0000000000000000        1.0000000000000000     
   2.0000000000000000        5.0000000000000000        1.0000000000000000     
   3.0000000000000000        5.0000000000000000        1.0000000000000000     
   4.0000000000000000        5.0000000000000000        1.0000000000000000     
   5.0000000000000000        5.0000000000000000        1.0000000000000000     
   0.0000000000000000        0.0000000000000000        2.0000000000000000     
   1.0000000000000000        0.0000000000000000        2.0000000000000000     
   2.0000000000000000        0.0000000000000000        2.0000000000000000     
   3.0000000000000000        0.0000000000000000        2.0000000000000000     
   4.0000000000000000        0.0000000000000000        2.0000000000000000     
   5.0000000000000000        0.0000000000000000        2.0000000000000000     
   0.0000000000000000        1.0000000000000000        2.0000000000000000     
   1.0000000000000000        1.0000000000000000        2.0000000000000000     
   2.0000000000000000        1.0000000000000000        2.0000000000000000     
   3.0000000000000000        1.0000000000000000        2.0000000000000000     
   4.0000000000000000        1.0000000000000000        2.0000000000000000     
   5.0000000000000000        1.0000000000000000        2.0000000000000000     
   0.0000000000000000        2.0000000000000000        2.0000000000000000     
   1.0000000000000000        2.0000000000000000        2.0000000000000000     
   2.0000000000000000        2.0000000000000000        2.0000000000000000     
   3.0000000000000000        2.0000000000000000        2.0000000000000000     
   4.0000000000000000        2.0000000000000000        2.0000000000000000     
   5.0000000000000000        2.0000000000000000        2.0000000000000000     
   0.0000000000000000        3.0000000000000000        2.0000000000000000     
   1.0000000000000000        3.0000000000000000        2.0000000000000000     
   2.0000000000000000        3.0000000000000000        2.0000000000000000     
   3.0000000000000000        3.0000000000000000        2.0000000000000000     
   4.0000000000000000        3.0000000000000000        2.0000000000000000     
   5.0000000000000000        3.0000000000000000        2.0000000000000000     
   0.0000000000000000        4.0000000000000000        2.0000000000000000     
   1.0000000000000000        4.0000000000000000        2.0000000000000000     
   2.0000000000000000        4.0000000000000000        2.0000000000000000     
   3.0000000000000000        4.0000000000000000        2.0000000000000000     
   4.0000000000000000        4.0000000000000000        2.0000000000000000     
   5.0000000000000000        4.0000000000000000        2.0000000000000000     
   0.0000000000000000        5.0000000000000000        2.0000000000000000     
   1.0000000000000000        5.0000000000000000        2.0000000000000000     
   2.0000000000000000        5.0000000000000000        2.0000000000000000     
   3.0000000000000000        5.0000000000000000        2.0000000000000000     
   4.0000000000000000        5.0000000000000000        2.0000000000000000     
   5.0000000000000000        5.0000000000000000        2.0000000000000000     
      1        2        8        7       37       38       44       43
      2        3        9        8       38       39       45       44
      3        4       10        9       39       40       46       45
      4        5       11       10       40       41       47       46
      5        6       12       11       41       42       48       47
      7        8       14       13       43       44       50       49
      8        9       15       14       44       45       51       50
      9       10       16       15       45       46       52       51
     10       11       17       16       46       47       53       52
     11       12       18       17       47       48       54       53
     13       14       20       19       49       50       56       55
     14       15       21       20       50       51       57       56
     15       16       22       21       51       52       58       57
     16       17       23       22       52       53       59       58
     17       18       24       23       53       54       60       59
     19       20       26       25       55       56       62       61
     20       21       27       26       56       57       63       62
     21       22       28       27       57       58       64       63
     22       23       29       28       58       59       65       64
     23       24       30       29       59       60       66       65
     25       26       32       31       61       62       68       67
     26       27       33       32       62       63       69       68
     27       28       34       33       63       64       70       69
     28       29       35       34       64       65       71       70
     29       30       36       35       65       66       72       71
     37       38       44       43       73       74       80       79
     38       39       45       44       74       75       81       80
     39       40       46       45       75       76       82       81
     40       41       47       46       76       77       83       82
     41       42       48       47       77       78       84       83
     43       44       50       49       79       80       86       85
     44       45       51       50       80       81       87       86
     45       46       52       51       81       82       88       87
     46       47       53       52       82       83       89       88
     47       48       54       53       83       84       90       89
     49       50       56       55       85       86       92       91
     50       51       57       56       86       87       93       92
     51       52       58       57       87       88       94       93
     52       53       59       58       88       89       95       94
     53       54       60       59       89       90       96       95
     55       56       62       61       91       92       98       97
     56       57       63       62       92       93       99       98
     57       58       64       63       93       94      100       99
     58       59       65       64       94       95      101      100
     59       60       66       65       95       96      102      101
     61       62       68       67       97       98      104      103
     62       63       69       68       98       99      105      104
     63       64       70       69       99      100      106      105
     64       65       71       70      100      101      107      106
     65       66       72       71      101      102      108      107
