 VARIABLES = "X", "Y", "Z"
 ZONE F=FEPOINT, ET=BRICK, N=         252 E=         150
   0.0000000000000000        2.0000000000000000        0.0000000000000000     
   1.0000000000000000        2.0000000000000000        0.0000000000000000     
   2.0000000000000000        2.0000000000000000        0.0000000000000000     
   3.0000000000000000        2.0000000000000000        0.0000000000000000     
   4.0000000000000000        2.0000000000000000        0.0000000000000000     
   5.0000000000000000        2.0000000000000000        0.0000000000000000     
   0.0000000000000000        3.0000000000000000        0.0000000000000000     
   1.0000000000000000        3.0000000000000000        0.0000000000000000     
   2.0000000000000000        3.0000000000000000        0.0000000000000000     
   3.0000000000000000        3.0000000000000000        0.0000000000000000     
   4.0000000000000000        3.0000000000000000        0.0000000000000000     
   5.0000000000000000        3.0000000000000000        0.0000000000000000     
   0.0000000000000000        4.0000000000000000        0.0000000000000000     
   1.0000000000000000        4.0000000000000000        0.0000000000000000     
   2.0000000000000000        4.0000000000000000        0.0000000000000000     
   3.0000000000000000        4.0000000000000000        0.0000000000000000     
   4.0000000000000000        4.0000000000000000        0.0000000000000000     
   5.0000000000000000        4.0000000000000000        0.0000000000000000     
   0.0000000000000000        5.0000000000000000        0.0000000000000000     
   1.0000000000000000        5.0000000000000000        0.0000000000000000     
   2.0000000000000000        5.0000000000000000        0.0000000000000000     
   3.0000000000000000        5.0000000000000000        0.0000000000000000     
   4.0000000000000000        5.0000000000000000        0.0000000000000000     
   5.0000000000000000        5.0000000000000000        0.0000000000000000     
   0.0000000000000000        6.0000000000000000        0.0000000000000000     
   1.0000000000000000        6.0000000000000000        0.0000000000000000     
   2.0000000000000000        6.0000000000000000        0.0000000000000000     
   3.0000000000000000        6.0000000000000000        0.0000000000000000     
   4.0000000000000000        6.0000000000000000        0.0000000000000000     
   5.0000000000000000        6.0000000000000000        0.0000000000000000     
   0.0000000000000000        7.0000000000000000        0.0000000000000000     
   1.0000000000000000        7.0000000000000000        0.0000000000000000     
   2.0000000000000000        7.0000000000000000        0.0000000000000000     
   3.0000000000000000        7.0000000000000000        0.0000000000000000     
   4.0000000000000000        7.0000000000000000        0.0000000000000000     
   5.0000000000000000        7.0000000000000000        0.0000000000000000     
   0.0000000000000000        1.7320508075688774       0.99999999999999989     
   1.0000000000000000        1.7320508075688774       0.99999999999999989     
   2.0000000000000000        1.7320508075688774       0.99999999999999989     
   3.0000000000000000        1.7320508075688774       0.99999999999999989     
   4.0000000000000000        1.7320508075688774       0.99999999999999989     
   5.0000000000000000        1.7320508075688774       0.99999999999999989     
   0.0000000000000000        2.5980762113533160        1.4999999999999998     
   1.0000000000000000        2.5980762113533160        1.4999999999999998     
   2.0000000000000000        2.5980762113533160        1.4999999999999998     
   3.0000000000000000        2.5980762113533160        1.4999999999999998     
   4.0000000000000000        2.5980762113533160        1.4999999999999998     
   5.0000000000000000        2.5980762113533160        1.4999999999999998     
   0.0000000000000000        3.4641016151377548        1.9999999999999998     
   1.0000000000000000        3.4641016151377548        1.9999999999999998     
   2.0000000000000000        3.4641016151377548        1.9999999999999998     
   3.0000000000000000        3.4641016151377548        1.9999999999999998     
   4.0000000000000000        3.4641016151377548        1.9999999999999998     
   5.0000000000000000        3.4641016151377548        1.9999999999999998     
   0.0000000000000000        4.3301270189221936        2.4999999999999996     
   1.0000000000000000        4.3301270189221936        2.4999999999999996     
   2.0000000000000000        4.3301270189221936        2.4999999999999996     
   3.0000000000000000        4.3301270189221936        2.4999999999999996     
   4.0000000000000000        4.3301270189221936        2.4999999999999996     
   5.0000000000000000        4.3301270189221936        2.4999999999999996     
   0.0000000000000000        5.1961524227066320        2.9999999999999996     
   1.0000000000000000        5.1961524227066320        2.9999999999999996     
   2.0000000000000000        5.1961524227066320        2.9999999999999996     
   3.0000000000000000        5.1961524227066320        2.9999999999999996     
   4.0000000000000000        5.1961524227066320        2.9999999999999996     
   5.0000000000000000        5.1961524227066320        2.9999999999999996     
   0.0000000000000000        6.0621778264910713        3.4999999999999996     
   1.0000000000000000        6.0621778264910713        3.4999999999999996     
   2.0000000000000000        6.0621778264910713        3.4999999999999996     
   3.0000000000000000        6.0621778264910713        3.4999999999999996     
   4.0000000000000000        6.0621778264910713        3.4999999999999996     
   5.0000000000000000        6.0621778264910713        3.4999999999999996     
   0.0000000000000000        1.0000000000000002        1.7320508075688772     
   1.0000000000000000        1.0000000000000002        1.7320508075688772     
   2.0000000000000000        1.0000000000000002        1.7320508075688772     
   3.0000000000000000        1.0000000000000002        1.7320508075688772     
   4.0000000000000000        1.0000000000000002        1.7320508075688772     
   5.0000000000000000        1.0000000000000002        1.7320508075688772     
   0.0000000000000000        1.5000000000000004        2.5980762113533160     
   1.0000000000000000        1.5000000000000004        2.5980762113533160     
   2.0000000000000000        1.5000000000000004        2.5980762113533160     
   3.0000000000000000        1.5000000000000004        2.5980762113533160     
   4.0000000000000000        1.5000000000000004        2.5980762113533160     
   5.0000000000000000        1.5000000000000004        2.5980762113533160     
   0.0000000000000000        2.0000000000000004        3.4641016151377544     
   1.0000000000000000        2.0000000000000004        3.4641016151377544     
   2.0000000000000000        2.0000000000000004        3.4641016151377544     
   3.0000000000000000        2.0000000000000004        3.4641016151377544     
   4.0000000000000000        2.0000000000000004        3.4641016151377544     
   5.0000000000000000        2.0000000000000004        3.4641016151377544     
   0.0000000000000000        2.5000000000000004        4.3301270189221928     
   1.0000000000000000        2.5000000000000004        4.3301270189221928     
   2.0000000000000000        2.5000000000000004        4.3301270189221928     
   3.0000000000000000        2.5000000000000004        4.3301270189221928     
   4.0000000000000000        2.5000000000000004        4.3301270189221928     
   5.0000000000000000        2.5000000000000004        4.3301270189221928     
   0.0000000000000000        3.0000000000000009        5.1961524227066320     
   1.0000000000000000        3.0000000000000009        5.1961524227066320     
   2.0000000000000000        3.0000000000000009        5.1961524227066320     
   3.0000000000000000        3.0000000000000009        5.1961524227066320     
   4.0000000000000000        3.0000000000000009        5.1961524227066320     
   5.0000000000000000        3.0000000000000009        5.1961524227066320     
   0.0000000000000000        3.5000000000000009        6.0621778264910704     
   1.0000000000000000        3.5000000000000009        6.0621778264910704     
   2.0000000000000000        3.5000000000000009        6.0621778264910704     
   3.0000000000000000        3.5000000000000009        6.0621778264910704     
   4.0000000000000000        3.5000000000000009        6.0621778264910704     
   5.0000000000000000        3.5000000000000009        6.0621778264910704     
   0.0000000000000000        1.2246467991473532E-016   2.0000000000000000     
   1.0000000000000000        1.2246467991473532E-016   2.0000000000000000     
   2.0000000000000000        1.2246467991473532E-016   2.0000000000000000     
   3.0000000000000000        1.2246467991473532E-016   2.0000000000000000     
   4.0000000000000000        1.2246467991473532E-016   2.0000000000000000     
   5.0000000000000000        1.2246467991473532E-016   2.0000000000000000     
   0.0000000000000000        1.8369701987210297E-016   3.0000000000000000     
   1.0000000000000000        1.8369701987210297E-016   3.0000000000000000     
   2.0000000000000000        1.8369701987210297E-016   3.0000000000000000     
   3.0000000000000000        1.8369701987210297E-016   3.0000000000000000     
   4.0000000000000000        1.8369701987210297E-016   3.0000000000000000     
   5.0000000000000000        1.8369701987210297E-016   3.0000000000000000     
   0.0000000000000000        2.4492935982947064E-016   4.0000000000000000     
   1.0000000000000000        2.4492935982947064E-016   4.0000000000000000     
   2.0000000000000000        2.4492935982947064E-016   4.0000000000000000     
   3.0000000000000000        2.4492935982947064E-016   4.0000000000000000     
   4.0000000000000000        2.4492935982947064E-016   4.0000000000000000     
   5.0000000000000000        2.4492935982947064E-016   4.0000000000000000     
   0.0000000000000000        3.0616169978683831E-016   5.0000000000000000     
   1.0000000000000000        3.0616169978683831E-016   5.0000000000000000     
   2.0000000000000000        3.0616169978683831E-016   5.0000000000000000     
   3.0000000000000000        3.0616169978683831E-016   5.0000000000000000     
   4.0000000000000000        3.0616169978683831E-016   5.0000000000000000     
   5.0000000000000000        3.0616169978683831E-016   5.0000000000000000     
   0.0000000000000000        3.6739403974420594E-016   6.0000000000000000     
   1.0000000000000000        3.6739403974420594E-016   6.0000000000000000     
   2.0000000000000000        3.6739403974420594E-016   6.0000000000000000     
   3.0000000000000000        3.6739403974420594E-016   6.0000000000000000     
   4.0000000000000000        3.6739403974420594E-016   6.0000000000000000     
   5.0000000000000000        3.6739403974420594E-016   6.0000000000000000     
   0.0000000000000000        4.2862637970157361E-016   7.0000000000000000     
   1.0000000000000000        4.2862637970157361E-016   7.0000000000000000     
   2.0000000000000000        4.2862637970157361E-016   7.0000000000000000     
   3.0000000000000000        4.2862637970157361E-016   7.0000000000000000     
   4.0000000000000000        4.2862637970157361E-016   7.0000000000000000     
   5.0000000000000000        4.2862637970157361E-016   7.0000000000000000     
   0.0000000000000000      -0.99999999999999956        1.7320508075688776     
   1.0000000000000000      -0.99999999999999956        1.7320508075688776     
   2.0000000000000000      -0.99999999999999956        1.7320508075688776     
   3.0000000000000000      -0.99999999999999956        1.7320508075688776     
   4.0000000000000000      -0.99999999999999956        1.7320508075688776     
   5.0000000000000000      -0.99999999999999956        1.7320508075688776     
   0.0000000000000000       -1.4999999999999993        2.5980762113533165     
   1.0000000000000000       -1.4999999999999993        2.5980762113533165     
   2.0000000000000000       -1.4999999999999993        2.5980762113533165     
   3.0000000000000000       -1.4999999999999993        2.5980762113533165     
   4.0000000000000000       -1.4999999999999993        2.5980762113533165     
   5.0000000000000000       -1.4999999999999993        2.5980762113533165     
   0.0000000000000000       -1.9999999999999991        3.4641016151377553     
   1.0000000000000000       -1.9999999999999991        3.4641016151377553     
   2.0000000000000000       -1.9999999999999991        3.4641016151377553     
   3.0000000000000000       -1.9999999999999991        3.4641016151377553     
   4.0000000000000000       -1.9999999999999991        3.4641016151377553     
   5.0000000000000000       -1.9999999999999991        3.4641016151377553     
   0.0000000000000000       -2.4999999999999991        4.3301270189221945     
   1.0000000000000000       -2.4999999999999991        4.3301270189221945     
   2.0000000000000000       -2.4999999999999991        4.3301270189221945     
   3.0000000000000000       -2.4999999999999991        4.3301270189221945     
   4.0000000000000000       -2.4999999999999991        4.3301270189221945     
   5.0000000000000000       -2.4999999999999991        4.3301270189221945     
   0.0000000000000000       -2.9999999999999987        5.1961524227066329     
   1.0000000000000000       -2.9999999999999987        5.1961524227066329     
   2.0000000000000000       -2.9999999999999987        5.1961524227066329     
   3.0000000000000000       -2.9999999999999987        5.1961524227066329     
   4.0000000000000000       -2.9999999999999987        5.1961524227066329     
   5.0000000000000000       -2.9999999999999987        5.1961524227066329     
   0.0000000000000000       -3.4999999999999982        6.0621778264910713     
   1.0000000000000000       -3.4999999999999982        6.0621778264910713     
   2.0000000000000000       -3.4999999999999982        6.0621778264910713     
   3.0000000000000000       -3.4999999999999982        6.0621778264910713     
   4.0000000000000000       -3.4999999999999982        6.0621778264910713     
   5.0000000000000000       -3.4999999999999982        6.0621778264910713     
   0.0000000000000000       -1.7320508075688774       0.99999999999999989     
   1.0000000000000000       -1.7320508075688774       0.99999999999999989     
   2.0000000000000000       -1.7320508075688774       0.99999999999999989     
   3.0000000000000000       -1.7320508075688774       0.99999999999999989     
   4.0000000000000000       -1.7320508075688774       0.99999999999999989     
   5.0000000000000000       -1.7320508075688774       0.99999999999999989     
   0.0000000000000000       -2.5980762113533160        1.4999999999999998     
   1.0000000000000000       -2.5980762113533160        1.4999999999999998     
   2.0000000000000000       -2.5980762113533160        1.4999999999999998     
   3.0000000000000000       -2.5980762113533160        1.4999999999999998     
   4.0000000000000000       -2.5980762113533160        1.4999999999999998     
   5.0000000000000000       -2.5980762113533160        1.4999999999999998     
   0.0000000000000000       -3.4641016151377548        1.9999999999999998     
   1.0000000000000000       -3.4641016151377548        1.9999999999999998     
   2.0000000000000000       -3.4641016151377548        1.9999999999999998     
   3.0000000000000000       -3.4641016151377548        1.9999999999999998     
   4.0000000000000000       -3.4641016151377548        1.9999999999999998     
   5.0000000000000000       -3.4641016151377548        1.9999999999999998     
   0.0000000000000000       -4.3301270189221936        2.4999999999999996     
   1.0000000000000000       -4.3301270189221936        2.4999999999999996     
   2.0000000000000000       -4.3301270189221936        2.4999999999999996     
   3.0000000000000000       -4.3301270189221936        2.4999999999999996     
   4.0000000000000000       -4.3301270189221936        2.4999999999999996     
   5.0000000000000000       -4.3301270189221936        2.4999999999999996     
   0.0000000000000000       -5.1961524227066320        2.9999999999999996     
   1.0000000000000000       -5.1961524227066320        2.9999999999999996     
   2.0000000000000000       -5.1961524227066320        2.9999999999999996     
   3.0000000000000000       -5.1961524227066320        2.9999999999999996     
   4.0000000000000000       -5.1961524227066320        2.9999999999999996     
   5.0000000000000000       -5.1961524227066320        2.9999999999999996     
   0.0000000000000000       -6.0621778264910713        3.4999999999999996     
   1.0000000000000000       -6.0621778264910713        3.4999999999999996     
   2.0000000000000000       -6.0621778264910713        3.4999999999999996     
   3.0000000000000000       -6.0621778264910713        3.4999999999999996     
   4.0000000000000000       -6.0621778264910713        3.4999999999999996     
   5.0000000000000000       -6.0621778264910713        3.4999999999999996     
   0.0000000000000000       -2.0000000000000000        2.4492935982947064E-016
   1.0000000000000000       -2.0000000000000000        2.4492935982947064E-016
   2.0000000000000000       -2.0000000000000000        2.4492935982947064E-016
   3.0000000000000000       -2.0000000000000000        2.4492935982947064E-016
   4.0000000000000000       -2.0000000000000000        2.4492935982947064E-016
   5.0000000000000000       -2.0000000000000000        2.4492935982947064E-016
   0.0000000000000000       -3.0000000000000000        3.6739403974420594E-016
   1.0000000000000000       -3.0000000000000000        3.6739403974420594E-016
   2.0000000000000000       -3.0000000000000000        3.6739403974420594E-016
   3.0000000000000000       -3.0000000000000000        3.6739403974420594E-016
   4.0000000000000000       -3.0000000000000000        3.6739403974420594E-016
   5.0000000000000000       -3.0000000000000000        3.6739403974420594E-016
   0.0000000000000000       -4.0000000000000000        4.8985871965894128E-016
   1.0000000000000000       -4.0000000000000000        4.8985871965894128E-016
   2.0000000000000000       -4.0000000000000000        4.8985871965894128E-016
   3.0000000000000000       -4.0000000000000000        4.8985871965894128E-016
   4.0000000000000000       -4.0000000000000000        4.8985871965894128E-016
   5.0000000000000000       -4.0000000000000000        4.8985871965894128E-016
   0.0000000000000000       -5.0000000000000000        6.1232339957367663E-016
   1.0000000000000000       -5.0000000000000000        6.1232339957367663E-016
   2.0000000000000000       -5.0000000000000000        6.1232339957367663E-016
   3.0000000000000000       -5.0000000000000000        6.1232339957367663E-016
   4.0000000000000000       -5.0000000000000000        6.1232339957367663E-016
   5.0000000000000000       -5.0000000000000000        6.1232339957367663E-016
   0.0000000000000000       -6.0000000000000000        7.3478807948841188E-016
   1.0000000000000000       -6.0000000000000000        7.3478807948841188E-016
   2.0000000000000000       -6.0000000000000000        7.3478807948841188E-016
   3.0000000000000000       -6.0000000000000000        7.3478807948841188E-016
   4.0000000000000000       -6.0000000000000000        7.3478807948841188E-016
   5.0000000000000000       -6.0000000000000000        7.3478807948841188E-016
   0.0000000000000000       -7.0000000000000000        8.5725275940314722E-016
   1.0000000000000000       -7.0000000000000000        8.5725275940314722E-016
   2.0000000000000000       -7.0000000000000000        8.5725275940314722E-016
   3.0000000000000000       -7.0000000000000000        8.5725275940314722E-016
   4.0000000000000000       -7.0000000000000000        8.5725275940314722E-016
   5.0000000000000000       -7.0000000000000000        8.5725275940314722E-016
      1        2        8        7       37       38       44       43
      2        3        9        8       38       39       45       44
      3        4       10        9       39       40       46       45
      4        5       11       10       40       41       47       46
      5        6       12       11       41       42       48       47
      7        8       14       13       43       44       50       49
      8        9       15       14       44       45       51       50
      9       10       16       15       45       46       52       51
     10       11       17       16       46       47       53       52
     11       12       18       17       47       48       54       53
     13       14       20       19       49       50       56       55
     14       15       21       20       50       51       57       56
     15       16       22       21       51       52       58       57
     16       17       23       22       52       53       59       58
     17       18       24       23       53       54       60       59
     19       20       26       25       55       56       62       61
     20       21       27       26       56       57       63       62
     21       22       28       27       57       58       64       63
     22       23       29       28       58       59       65       64
     23       24       30       29       59       60       66       65
     25       26       32       31       61       62       68       67
     26       27       33       32       62       63       69       68
     27       28       34       33       63       64       70       69
     28       29       35       34       64       65       71       70
     29       30       36       35       65       66       72       71
     37       38       44       43       73       74       80       79
     38       39       45       44       74       75       81       80
     39       40       46       45       75       76       82       81
     40       41       47       46       76       77       83       82
     41       42       48       47       77       78       84       83
     43       44       50       49       79       80       86       85
     44       45       51       50       80       81       87       86
     45       46       52       51       81       82       88       87
     46       47       53       52       82       83       89       88
     47       48       54       53       83       84       90       89
     49       50       56       55       85       86       92       91
     50       51       57       56       86       87       93       92
     51       52       58       57       87       88       94       93
     52       53       59       58       88       89       95       94
     53       54       60       59       89       90       96       95
     55       56       62       61       91       92       98       97
     56       57       63       62       92       93       99       98
     57       58       64       63       93       94      100       99
     58       59       65       64       94       95      101      100
     59       60       66       65       95       96      102      101
     61       62       68       67       97       98      104      103
     62       63       69       68       98       99      105      104
     63       64       70       69       99      100      106      105
     64       65       71       70      100      101      107      106
     65       66       72       71      101      102      108      107
     73       74       80       79      109      110      116      115
     74       75       81       80      110      111      117      116
     75       76       82       81      111      112      118      117
     76       77       83       82      112      113      119      118
     77       78       84       83      113      114      120      119
     79       80       86       85      115      116      122      121
     80       81       87       86      116      117      123      122
     81       82       88       87      117      118      124      123
     82       83       89       88      118      119      125      124
     83       84       90       89      119      120      126      125
     85       86       92       91      121      122      128      127
     86       87       93       92      122      123      129      128
     87       88       94       93      123      124      130      129
     88       89       95       94      124      125      131      130
     89       90       96       95      125      126      132      131
     91       92       98       97      127      128      134      133
     92       93       99       98      128      129      135      134
     93       94      100       99      129      130      136      135
     94       95      101      100      130      131      137      136
     95       96      102      101      131      132      138      137
     97       98      104      103      133      134      140      139
     98       99      105      104      134      135      141      140
     99      100      106      105      135      136      142      141
    100      101      107      106      136      137      143      142
    101      102      108      107      137      138      144      143
    109      110      116      115      145      146      152      151
    110      111      117      116      146      147      153      152
    111      112      118      117      147      148      154      153
    112      113      119      118      148      149      155      154
    113      114      120      119      149      150      156      155
    115      116      122      121      151      152      158      157
    116      117      123      122      152      153      159      158
    117      118      124      123      153      154      160      159
    118      119      125      124      154      155      161      160
    119      120      126      125      155      156      162      161
    121      122      128      127      157      158      164      163
    122      123      129      128      158      159      165      164
    123      124      130      129      159      160      166      165
    124      125      131      130      160      161      167      166
    125      126      132      131      161      162      168      167
    127      128      134      133      163      164      170      169
    128      129      135      134      164      165      171      170
    129      130      136      135      165      166      172      171
    130      131      137      136      166      167      173      172
    131      132      138      137      167      168      174      173
    133      134      140      139      169      170      176      175
    134      135      141      140      170      171      177      176
    135      136      142      141      171      172      178      177
    136      137      143      142      172      173      179      178
    137      138      144      143      173      174      180      179
    145      146      152      151      181      182      188      187
    146      147      153      152      182      183      189      188
    147      148      154      153      183      184      190      189
    148      149      155      154      184      185      191      190
    149      150      156      155      185      186      192      191
    151      152      158      157      187      188      194      193
    152      153      159      158      188      189      195      194
    153      154      160      159      189      190      196      195
    154      155      161      160      190      191      197      196
    155      156      162      161      191      192      198      197
    157      158      164      163      193      194      200      199
    158      159      165      164      194      195      201      200
    159      160      166      165      195      196      202      201
    160      161      167      166      196      197      203      202
    161      162      168      167      197      198      204      203
    163      164      170      169      199      200      206      205
    164      165      171      170      200      201      207      206
    165      166      172      171      201      202      208      207
    166      167      173      172      202      203      209      208
    167      168      174      173      203      204      210      209
    169      170      176      175      205      206      212      211
    170      171      177      176      206      207      213      212
    171      172      178      177      207      208      214      213
    172      173      179      178      208      209      215      214
    173      174      180      179      209      210      216      215
    181      182      188      187      217      218      224      223
    182      183      189      188      218      219      225      224
    183      184      190      189      219      220      226      225
    184      185      191      190      220      221      227      226
    185      186      192      191      221      222      228      227
    187      188      194      193      223      224      230      229
    188      189      195      194      224      225      231      230
    189      190      196      195      225      226      232      231
    190      191      197      196      226      227      233      232
    191      192      198      197      227      228      234      233
    193      194      200      199      229      230      236      235
    194      195      201      200      230      231      237      236
    195      196      202      201      231      232      238      237
    196      197      203      202      232      233      239      238
    197      198      204      203      233      234      240      239