  TITLE = "SEM hex mesh" 
  VARIABLES = "x", "y", "z", "material ID"
 ZONE I=           5 ,J=           5 ,K=           5 , F=POINT
  0.00000E+00  0.00000E+00  0.00000E+00 1
  0.14645E+00  0.00000E+00  0.00000E+00 1
  0.50000E+00  0.00000E+00  0.00000E+00 1
  0.85355E+00  0.00000E+00  0.00000E+00 1
  0.10000E+01  0.00000E+00  0.00000E+00 1
  0.00000E+00  0.14645E+00  0.00000E+00 1
  0.14645E+00  0.14645E+00  0.00000E+00 1
  0.50000E+00  0.14645E+00  0.00000E+00 1
  0.85355E+00  0.14645E+00  0.00000E+00 1
  0.10000E+01  0.14645E+00  0.00000E+00 1
  0.00000E+00  0.50000E+00  0.00000E+00 1
  0.14645E+00  0.50000E+00  0.00000E+00 1
  0.50000E+00  0.50000E+00  0.00000E+00 1
  0.85355E+00  0.50000E+00  0.00000E+00 1
  0.10000E+01  0.50000E+00  0.00000E+00 1
  0.00000E+00  0.85355E+00  0.00000E+00 1
  0.14645E+00  0.85355E+00  0.00000E+00 1
  0.50000E+00  0.85355E+00  0.00000E+00 1
  0.85355E+00  0.85355E+00  0.00000E+00 1
  0.10000E+01  0.85355E+00  0.00000E+00 1
  0.00000E+00  0.10000E+01  0.00000E+00 1
  0.14645E+00  0.10000E+01  0.00000E+00 1
  0.50000E+00  0.10000E+01  0.00000E+00 1
  0.85355E+00  0.10000E+01  0.00000E+00 1
  0.10000E+01  0.10000E+01  0.00000E+00 1
  0.00000E+00  0.00000E+00  0.14645E+00 1
  0.14645E+00  0.00000E+00  0.14645E+00 1
  0.50000E+00  0.00000E+00  0.14645E+00 1
  0.85355E+00  0.00000E+00  0.14645E+00 1
  0.10000E+01  0.00000E+00  0.14645E+00 1
  0.00000E+00  0.14645E+00  0.14645E+00 1
  0.14645E+00  0.14645E+00  0.14645E+00 1
  0.50000E+00  0.14645E+00  0.14645E+00 1
  0.85355E+00  0.14645E+00  0.14645E+00 1
  0.10000E+01  0.14645E+00  0.14645E+00 1
  0.00000E+00  0.50000E+00  0.14645E+00 1
  0.14645E+00  0.50000E+00  0.14645E+00 1
  0.50000E+00  0.50000E+00  0.14645E+00 1
  0.85355E+00  0.50000E+00  0.14645E+00 1
  0.10000E+01  0.50000E+00  0.14645E+00 1
  0.00000E+00  0.85355E+00  0.14645E+00 1
  0.14645E+00  0.85355E+00  0.14645E+00 1
  0.50000E+00  0.85355E+00  0.14645E+00 1
  0.85355E+00  0.85355E+00  0.14645E+00 1
  0.10000E+01  0.85355E+00  0.14645E+00 1
  0.00000E+00  0.10000E+01  0.14645E+00 1
  0.14645E+00  0.10000E+01  0.14645E+00 1
  0.50000E+00  0.10000E+01  0.14645E+00 1
  0.85355E+00  0.10000E+01  0.14645E+00 1
  0.10000E+01  0.10000E+01  0.14645E+00 1
  0.00000E+00  0.00000E+00  0.50000E+00 1
  0.14645E+00  0.00000E+00  0.50000E+00 1
  0.50000E+00  0.00000E+00  0.50000E+00 1
  0.85355E+00  0.00000E+00  0.50000E+00 1
  0.10000E+01  0.00000E+00  0.50000E+00 1
  0.00000E+00  0.14645E+00  0.50000E+00 1
  0.14645E+00  0.14645E+00  0.50000E+00 1
  0.50000E+00  0.14645E+00  0.50000E+00 1
  0.85355E+00  0.14645E+00  0.50000E+00 1
  0.10000E+01  0.14645E+00  0.50000E+00 1
  0.00000E+00  0.50000E+00  0.50000E+00 1
  0.14645E+00  0.50000E+00  0.50000E+00 1
  0.50000E+00  0.50000E+00  0.50000E+00 1
  0.85355E+00  0.50000E+00  0.50000E+00 1
  0.10000E+01  0.50000E+00  0.50000E+00 1
  0.00000E+00  0.85355E+00  0.50000E+00 1
  0.14645E+00  0.85355E+00  0.50000E+00 1
  0.50000E+00  0.85355E+00  0.50000E+00 1
  0.85355E+00  0.85355E+00  0.50000E+00 1
  0.10000E+01  0.85355E+00  0.50000E+00 1
  0.00000E+00  0.10000E+01  0.50000E+00 1
  0.14645E+00  0.10000E+01  0.50000E+00 1
  0.50000E+00  0.10000E+01  0.50000E+00 1
  0.85355E+00  0.10000E+01  0.50000E+00 1
  0.10000E+01  0.10000E+01  0.50000E+00 1
  0.00000E+00  0.00000E+00  0.85355E+00 1
  0.14645E+00  0.00000E+00  0.85355E+00 1
  0.50000E+00  0.00000E+00  0.85355E+00 1
  0.85355E+00  0.00000E+00  0.85355E+00 1
  0.10000E+01  0.00000E+00  0.85355E+00 1
  0.00000E+00  0.14645E+00  0.85355E+00 1
  0.14645E+00  0.14645E+00  0.85355E+00 1
  0.50000E+00  0.14645E+00  0.85355E+00 1
  0.85355E+00  0.14645E+00  0.85355E+00 1
  0.10000E+01  0.14645E+00  0.85355E+00 1
  0.00000E+00  0.50000E+00  0.85355E+00 1
  0.14645E+00  0.50000E+00  0.85355E+00 1
  0.50000E+00  0.50000E+00  0.85355E+00 1
  0.85355E+00  0.50000E+00  0.85355E+00 1
  0.10000E+01  0.50000E+00  0.85355E+00 1
  0.00000E+00  0.85355E+00  0.85355E+00 1
  0.14645E+00  0.85355E+00  0.85355E+00 1
  0.50000E+00  0.85355E+00  0.85355E+00 1
  0.85355E+00  0.85355E+00  0.85355E+00 1
  0.10000E+01  0.85355E+00  0.85355E+00 1
  0.00000E+00  0.10000E+01  0.85355E+00 1
  0.14645E+00  0.10000E+01  0.85355E+00 1
  0.50000E+00  0.10000E+01  0.85355E+00 1
  0.85355E+00  0.10000E+01  0.85355E+00 1
  0.10000E+01  0.10000E+01  0.85355E+00 1
  0.00000E+00  0.00000E+00  0.10000E+01 1
  0.14645E+00  0.00000E+00  0.10000E+01 1
  0.50000E+00  0.00000E+00  0.10000E+01 1
  0.85355E+00  0.00000E+00  0.10000E+01 1
  0.10000E+01  0.00000E+00  0.10000E+01 1
  0.00000E+00  0.14645E+00  0.10000E+01 1
  0.14645E+00  0.14645E+00  0.10000E+01 1
  0.50000E+00  0.14645E+00  0.10000E+01 1
  0.85355E+00  0.14645E+00  0.10000E+01 1
  0.10000E+01  0.14645E+00  0.10000E+01 1
  0.00000E+00  0.50000E+00  0.10000E+01 1
  0.14645E+00  0.50000E+00  0.10000E+01 1
  0.50000E+00  0.50000E+00  0.10000E+01 1
  0.85355E+00  0.50000E+00  0.10000E+01 1
  0.10000E+01  0.50000E+00  0.10000E+01 1
  0.00000E+00  0.85355E+00  0.10000E+01 1
  0.14645E+00  0.85355E+00  0.10000E+01 1
  0.50000E+00  0.85355E+00  0.10000E+01 1
  0.85355E+00  0.85355E+00  0.10000E+01 1
  0.10000E+01  0.85355E+00  0.10000E+01 1
  0.00000E+00  0.10000E+01  0.10000E+01 1
  0.14645E+00  0.10000E+01  0.10000E+01 1
  0.50000E+00  0.10000E+01  0.10000E+01 1
  0.85355E+00  0.10000E+01  0.10000E+01 1
  0.10000E+01  0.10000E+01  0.10000E+01 1
 ZONE I=           5 ,J=           5 ,K=           5 , F=POINT
  0.10000E+01  0.00000E+00  0.00000E+00 1
  0.11464E+01  0.00000E+00  0.00000E+00 1
  0.15000E+01  0.00000E+00  0.00000E+00 1
  0.18536E+01  0.00000E+00  0.00000E+00 1
  0.20000E+01  0.00000E+00  0.00000E+00 1
  0.10000E+01  0.14645E+00  0.00000E+00 1
  0.11464E+01  0.14645E+00  0.00000E+00 1
  0.15000E+01  0.14645E+00  0.00000E+00 1
  0.18536E+01  0.14645E+00  0.00000E+00 1
  0.20000E+01  0.14645E+00  0.00000E+00 1
  0.10000E+01  0.50000E+00  0.00000E+00 1
  0.11464E+01  0.50000E+00  0.00000E+00 1
  0.15000E+01  0.50000E+00  0.00000E+00 1
  0.18536E+01  0.50000E+00  0.00000E+00 1
  0.20000E+01  0.50000E+00  0.00000E+00 1
  0.10000E+01  0.85355E+00  0.00000E+00 1
  0.11464E+01  0.85355E+00  0.00000E+00 1
  0.15000E+01  0.85355E+00  0.00000E+00 1
  0.18536E+01  0.85355E+00  0.00000E+00 1
  0.20000E+01  0.85355E+00  0.00000E+00 1
  0.10000E+01  0.10000E+01  0.00000E+00 1
  0.11464E+01  0.10000E+01  0.00000E+00 1
  0.15000E+01  0.10000E+01  0.00000E+00 1
  0.18536E+01  0.10000E+01  0.00000E+00 1
  0.20000E+01  0.10000E+01  0.00000E+00 1
  0.10000E+01  0.00000E+00  0.14645E+00 1
  0.11464E+01  0.00000E+00  0.14645E+00 1
  0.15000E+01  0.00000E+00  0.14645E+00 1
  0.18536E+01  0.00000E+00  0.14645E+00 1
  0.20000E+01  0.00000E+00  0.14645E+00 1
  0.10000E+01  0.14645E+00  0.14645E+00 1
  0.11464E+01  0.14645E+00  0.14645E+00 1
  0.15000E+01  0.14645E+00  0.14645E+00 1
  0.18536E+01  0.14645E+00  0.14645E+00 1
  0.20000E+01  0.14645E+00  0.14645E+00 1
  0.10000E+01  0.50000E+00  0.14645E+00 1
  0.11464E+01  0.50000E+00  0.14645E+00 1
  0.15000E+01  0.50000E+00  0.14645E+00 1
  0.18536E+01  0.50000E+00  0.14645E+00 1
  0.20000E+01  0.50000E+00  0.14645E+00 1
  0.10000E+01  0.85355E+00  0.14645E+00 1
  0.11464E+01  0.85355E+00  0.14645E+00 1
  0.15000E+01  0.85355E+00  0.14645E+00 1
  0.18536E+01  0.85355E+00  0.14645E+00 1
  0.20000E+01  0.85355E+00  0.14645E+00 1
  0.10000E+01  0.10000E+01  0.14645E+00 1
  0.11464E+01  0.10000E+01  0.14645E+00 1
  0.15000E+01  0.10000E+01  0.14645E+00 1
  0.18536E+01  0.10000E+01  0.14645E+00 1
  0.20000E+01  0.10000E+01  0.14645E+00 1
  0.10000E+01  0.00000E+00  0.50000E+00 1
  0.11464E+01  0.00000E+00  0.50000E+00 1
  0.15000E+01  0.00000E+00  0.50000E+00 1
  0.18536E+01  0.00000E+00  0.50000E+00 1
  0.20000E+01  0.00000E+00  0.50000E+00 1
  0.10000E+01  0.14645E+00  0.50000E+00 1
  0.11464E+01  0.14645E+00  0.50000E+00 1
  0.15000E+01  0.14645E+00  0.50000E+00 1
  0.18536E+01  0.14645E+00  0.50000E+00 1
  0.20000E+01  0.14645E+00  0.50000E+00 1
  0.10000E+01  0.50000E+00  0.50000E+00 1
  0.11464E+01  0.50000E+00  0.50000E+00 1
  0.15000E+01  0.50000E+00  0.50000E+00 1
  0.18536E+01  0.50000E+00  0.50000E+00 1
  0.20000E+01  0.50000E+00  0.50000E+00 1
  0.10000E+01  0.85355E+00  0.50000E+00 1
  0.11464E+01  0.85355E+00  0.50000E+00 1
  0.15000E+01  0.85355E+00  0.50000E+00 1
  0.18536E+01  0.85355E+00  0.50000E+00 1
  0.20000E+01  0.85355E+00  0.50000E+00 1
  0.10000E+01  0.10000E+01  0.50000E+00 1
  0.11464E+01  0.10000E+01  0.50000E+00 1
  0.15000E+01  0.10000E+01  0.50000E+00 1
  0.18536E+01  0.10000E+01  0.50000E+00 1
  0.20000E+01  0.10000E+01  0.50000E+00 1
  0.10000E+01  0.00000E+00  0.85355E+00 1
  0.11464E+01  0.00000E+00  0.85355E+00 1
  0.15000E+01  0.00000E+00  0.85355E+00 1
  0.18536E+01  0.00000E+00  0.85355E+00 1
  0.20000E+01  0.00000E+00  0.85355E+00 1
  0.10000E+01  0.14645E+00  0.85355E+00 1
  0.11464E+01  0.14645E+00  0.85355E+00 1
  0.15000E+01  0.14645E+00  0.85355E+00 1
  0.18536E+01  0.14645E+00  0.85355E+00 1
  0.20000E+01  0.14645E+00  0.85355E+00 1
  0.10000E+01  0.50000E+00  0.85355E+00 1
  0.11464E+01  0.50000E+00  0.85355E+00 1
  0.15000E+01  0.50000E+00  0.85355E+00 1
  0.18536E+01  0.50000E+00  0.85355E+00 1
  0.20000E+01  0.50000E+00  0.85355E+00 1
  0.10000E+01  0.85355E+00  0.85355E+00 1
  0.11464E+01  0.85355E+00  0.85355E+00 1
  0.15000E+01  0.85355E+00  0.85355E+00 1
  0.18536E+01  0.85355E+00  0.85355E+00 1
  0.20000E+01  0.85355E+00  0.85355E+00 1
  0.10000E+01  0.10000E+01  0.85355E+00 1
  0.11464E+01  0.10000E+01  0.85355E+00 1
  0.15000E+01  0.10000E+01  0.85355E+00 1
  0.18536E+01  0.10000E+01  0.85355E+00 1
  0.20000E+01  0.10000E+01  0.85355E+00 1
  0.10000E+01  0.00000E+00  0.10000E+01 1
  0.11464E+01  0.00000E+00  0.10000E+01 1
  0.15000E+01  0.00000E+00  0.10000E+01 1
  0.18536E+01  0.00000E+00  0.10000E+01 1
  0.20000E+01  0.00000E+00  0.10000E+01 1
  0.10000E+01  0.14645E+00  0.10000E+01 1
  0.11464E+01  0.14645E+00  0.10000E+01 1
  0.15000E+01  0.14645E+00  0.10000E+01 1
  0.18536E+01  0.14645E+00  0.10000E+01 1
  0.20000E+01  0.14645E+00  0.10000E+01 1
  0.10000E+01  0.50000E+00  0.10000E+01 1
  0.11464E+01  0.50000E+00  0.10000E+01 1
  0.15000E+01  0.50000E+00  0.10000E+01 1
  0.18536E+01  0.50000E+00  0.10000E+01 1
  0.20000E+01  0.50000E+00  0.10000E+01 1
  0.10000E+01  0.85355E+00  0.10000E+01 1
  0.11464E+01  0.85355E+00  0.10000E+01 1
  0.15000E+01  0.85355E+00  0.10000E+01 1
  0.18536E+01  0.85355E+00  0.10000E+01 1
  0.20000E+01  0.85355E+00  0.10000E+01 1
  0.10000E+01  0.10000E+01  0.10000E+01 1
  0.11464E+01  0.10000E+01  0.10000E+01 1
  0.15000E+01  0.10000E+01  0.10000E+01 1
  0.18536E+01  0.10000E+01  0.10000E+01 1
  0.20000E+01  0.10000E+01  0.10000E+01 1
 ZONE I=           5 ,J=           5 ,K=           5 , F=POINT
  0.20000E+01  0.00000E+00  0.00000E+00 1
  0.21464E+01  0.00000E+00  0.00000E+00 1
  0.25000E+01  0.00000E+00  0.00000E+00 1
  0.28536E+01  0.00000E+00  0.00000E+00 1
  0.30000E+01  0.00000E+00  0.00000E+00 1
  0.20000E+01  0.14645E+00  0.00000E+00 1
  0.21464E+01  0.14645E+00  0.00000E+00 1
  0.25000E+01  0.14645E+00  0.00000E+00 1
  0.28536E+01  0.14645E+00  0.00000E+00 1
  0.30000E+01  0.14645E+00  0.00000E+00 1
  0.20000E+01  0.50000E+00  0.00000E+00 1
  0.21464E+01  0.50000E+00  0.00000E+00 1
  0.25000E+01  0.50000E+00  0.00000E+00 1
  0.28536E+01  0.50000E+00  0.00000E+00 1
  0.30000E+01  0.50000E+00  0.00000E+00 1
  0.20000E+01  0.85355E+00  0.00000E+00 1
  0.21464E+01  0.85355E+00  0.00000E+00 1
  0.25000E+01  0.85355E+00  0.00000E+00 1
  0.28536E+01  0.85355E+00  0.00000E+00 1
  0.30000E+01  0.85355E+00  0.00000E+00 1
  0.20000E+01  0.10000E+01  0.00000E+00 1
  0.21464E+01  0.10000E+01  0.00000E+00 1
  0.25000E+01  0.10000E+01  0.00000E+00 1
  0.28536E+01  0.10000E+01  0.00000E+00 1
  0.30000E+01  0.10000E+01  0.00000E+00 1
  0.20000E+01  0.00000E+00  0.14645E+00 1
  0.21464E+01  0.00000E+00  0.14645E+00 1
  0.25000E+01  0.00000E+00  0.14645E+00 1
  0.28536E+01  0.00000E+00  0.14645E+00 1
  0.30000E+01  0.00000E+00  0.14645E+00 1
  0.20000E+01  0.14645E+00  0.14645E+00 1
  0.21464E+01  0.14645E+00  0.14645E+00 1
  0.25000E+01  0.14645E+00  0.14645E+00 1
  0.28536E+01  0.14645E+00  0.14645E+00 1
  0.30000E+01  0.14645E+00  0.14645E+00 1
  0.20000E+01  0.50000E+00  0.14645E+00 1
  0.21464E+01  0.50000E+00  0.14645E+00 1
  0.25000E+01  0.50000E+00  0.14645E+00 1
  0.28536E+01  0.50000E+00  0.14645E+00 1
  0.30000E+01  0.50000E+00  0.14645E+00 1
  0.20000E+01  0.85355E+00  0.14645E+00 1
  0.21464E+01  0.85355E+00  0.14645E+00 1
  0.25000E+01  0.85355E+00  0.14645E+00 1
  0.28536E+01  0.85355E+00  0.14645E+00 1
  0.30000E+01  0.85355E+00  0.14645E+00 1
  0.20000E+01  0.10000E+01  0.14645E+00 1
  0.21464E+01  0.10000E+01  0.14645E+00 1
  0.25000E+01  0.10000E+01  0.14645E+00 1
  0.28536E+01  0.10000E+01  0.14645E+00 1
  0.30000E+01  0.10000E+01  0.14645E+00 1
  0.20000E+01  0.00000E+00  0.50000E+00 1
  0.21464E+01  0.00000E+00  0.50000E+00 1
  0.25000E+01  0.00000E+00  0.50000E+00 1
  0.28536E+01  0.00000E+00  0.50000E+00 1
  0.30000E+01  0.00000E+00  0.50000E+00 1
  0.20000E+01  0.14645E+00  0.50000E+00 1
  0.21464E+01  0.14645E+00  0.50000E+00 1
  0.25000E+01  0.14645E+00  0.50000E+00 1
  0.28536E+01  0.14645E+00  0.50000E+00 1
  0.30000E+01  0.14645E+00  0.50000E+00 1
  0.20000E+01  0.50000E+00  0.50000E+00 1
  0.21464E+01  0.50000E+00  0.50000E+00 1
  0.25000E+01  0.50000E+00  0.50000E+00 1
  0.28536E+01  0.50000E+00  0.50000E+00 1
  0.30000E+01  0.50000E+00  0.50000E+00 1
  0.20000E+01  0.85355E+00  0.50000E+00 1
  0.21464E+01  0.85355E+00  0.50000E+00 1
  0.25000E+01  0.85355E+00  0.50000E+00 1
  0.28536E+01  0.85355E+00  0.50000E+00 1
  0.30000E+01  0.85355E+00  0.50000E+00 1
  0.20000E+01  0.10000E+01  0.50000E+00 1
  0.21464E+01  0.10000E+01  0.50000E+00 1
  0.25000E+01  0.10000E+01  0.50000E+00 1
  0.28536E+01  0.10000E+01  0.50000E+00 1
  0.30000E+01  0.10000E+01  0.50000E+00 1
  0.20000E+01  0.00000E+00  0.85355E+00 1
  0.21464E+01  0.00000E+00  0.85355E+00 1
  0.25000E+01  0.00000E+00  0.85355E+00 1
  0.28536E+01  0.00000E+00  0.85355E+00 1
  0.30000E+01  0.00000E+00  0.85355E+00 1
  0.20000E+01  0.14645E+00  0.85355E+00 1
  0.21464E+01  0.14645E+00  0.85355E+00 1
  0.25000E+01  0.14645E+00  0.85355E+00 1
  0.28536E+01  0.14645E+00  0.85355E+00 1
  0.30000E+01  0.14645E+00  0.85355E+00 1
  0.20000E+01  0.50000E+00  0.85355E+00 1
  0.21464E+01  0.50000E+00  0.85355E+00 1
  0.25000E+01  0.50000E+00  0.85355E+00 1
  0.28536E+01  0.50000E+00  0.85355E+00 1
  0.30000E+01  0.50000E+00  0.85355E+00 1
  0.20000E+01  0.85355E+00  0.85355E+00 1
  0.21464E+01  0.85355E+00  0.85355E+00 1
  0.25000E+01  0.85355E+00  0.85355E+00 1
  0.28536E+01  0.85355E+00  0.85355E+00 1
  0.30000E+01  0.85355E+00  0.85355E+00 1
  0.20000E+01  0.10000E+01  0.85355E+00 1
  0.21464E+01  0.10000E+01  0.85355E+00 1
  0.25000E+01  0.10000E+01  0.85355E+00 1
  0.28536E+01  0.10000E+01  0.85355E+00 1
  0.30000E+01  0.10000E+01  0.85355E+00 1
  0.20000E+01  0.00000E+00  0.10000E+01 1
  0.21464E+01  0.00000E+00  0.10000E+01 1
  0.25000E+01  0.00000E+00  0.10000E+01 1
  0.28536E+01  0.00000E+00  0.10000E+01 1
  0.30000E+01  0.00000E+00  0.10000E+01 1
  0.20000E+01  0.14645E+00  0.10000E+01 1
  0.21464E+01  0.14645E+00  0.10000E+01 1
  0.25000E+01  0.14645E+00  0.10000E+01 1
  0.28536E+01  0.14645E+00  0.10000E+01 1
  0.30000E+01  0.14645E+00  0.10000E+01 1
  0.20000E+01  0.50000E+00  0.10000E+01 1
  0.21464E+01  0.50000E+00  0.10000E+01 1
  0.25000E+01  0.50000E+00  0.10000E+01 1
  0.28536E+01  0.50000E+00  0.10000E+01 1
  0.30000E+01  0.50000E+00  0.10000E+01 1
  0.20000E+01  0.85355E+00  0.10000E+01 1
  0.21464E+01  0.85355E+00  0.10000E+01 1
  0.25000E+01  0.85355E+00  0.10000E+01 1
  0.28536E+01  0.85355E+00  0.10000E+01 1
  0.30000E+01  0.85355E+00  0.10000E+01 1
  0.20000E+01  0.10000E+01  0.10000E+01 1
  0.21464E+01  0.10000E+01  0.10000E+01 1
  0.25000E+01  0.10000E+01  0.10000E+01 1
  0.28536E+01  0.10000E+01  0.10000E+01 1
  0.30000E+01  0.10000E+01  0.10000E+01 1
 ZONE I=           5 ,J=           5 ,K=           5 , F=POINT
  0.30000E+01  0.00000E+00  0.00000E+00 1
  0.31464E+01  0.00000E+00  0.00000E+00 1
  0.35000E+01  0.00000E+00  0.00000E+00 1
  0.38536E+01  0.00000E+00  0.00000E+00 1
  0.40000E+01  0.00000E+00  0.00000E+00 1
  0.30000E+01  0.14645E+00  0.00000E+00 1
  0.31464E+01  0.14645E+00  0.00000E+00 1
  0.35000E+01  0.14645E+00  0.00000E+00 1
  0.38536E+01  0.14645E+00  0.00000E+00 1
  0.40000E+01  0.14645E+00  0.00000E+00 1
  0.30000E+01  0.50000E+00  0.00000E+00 1
  0.31464E+01  0.50000E+00  0.00000E+00 1
  0.35000E+01  0.50000E+00  0.00000E+00 1
  0.38536E+01  0.50000E+00  0.00000E+00 1
  0.40000E+01  0.50000E+00  0.00000E+00 1
  0.30000E+01  0.85355E+00  0.00000E+00 1
  0.31464E+01  0.85355E+00  0.00000E+00 1
  0.35000E+01  0.85355E+00  0.00000E+00 1
  0.38536E+01  0.85355E+00  0.00000E+00 1
  0.40000E+01  0.85355E+00  0.00000E+00 1
  0.30000E+01  0.10000E+01  0.00000E+00 1
  0.31464E+01  0.10000E+01  0.00000E+00 1
  0.35000E+01  0.10000E+01  0.00000E+00 1
  0.38536E+01  0.10000E+01  0.00000E+00 1
  0.40000E+01  0.10000E+01  0.00000E+00 1
  0.30000E+01  0.00000E+00  0.14645E+00 1
  0.31464E+01  0.00000E+00  0.14645E+00 1
  0.35000E+01  0.00000E+00  0.14645E+00 1
  0.38536E+01  0.00000E+00  0.14645E+00 1
  0.40000E+01  0.00000E+00  0.14645E+00 1
  0.30000E+01  0.14645E+00  0.14645E+00 1
  0.31464E+01  0.14645E+00  0.14645E+00 1
  0.35000E+01  0.14645E+00  0.14645E+00 1
  0.38536E+01  0.14645E+00  0.14645E+00 1
  0.40000E+01  0.14645E+00  0.14645E+00 1
  0.30000E+01  0.50000E+00  0.14645E+00 1
  0.31464E+01  0.50000E+00  0.14645E+00 1
  0.35000E+01  0.50000E+00  0.14645E+00 1
  0.38536E+01  0.50000E+00  0.14645E+00 1
  0.40000E+01  0.50000E+00  0.14645E+00 1
  0.30000E+01  0.85355E+00  0.14645E+00 1
  0.31464E+01  0.85355E+00  0.14645E+00 1
  0.35000E+01  0.85355E+00  0.14645E+00 1
  0.38536E+01  0.85355E+00  0.14645E+00 1
  0.40000E+01  0.85355E+00  0.14645E+00 1
  0.30000E+01  0.10000E+01  0.14645E+00 1
  0.31464E+01  0.10000E+01  0.14645E+00 1
  0.35000E+01  0.10000E+01  0.14645E+00 1
  0.38536E+01  0.10000E+01  0.14645E+00 1
  0.40000E+01  0.10000E+01  0.14645E+00 1
  0.30000E+01  0.00000E+00  0.50000E+00 1
  0.31464E+01  0.00000E+00  0.50000E+00 1
  0.35000E+01  0.00000E+00  0.50000E+00 1
  0.38536E+01  0.00000E+00  0.50000E+00 1
  0.40000E+01  0.00000E+00  0.50000E+00 1
  0.30000E+01  0.14645E+00  0.50000E+00 1
  0.31464E+01  0.14645E+00  0.50000E+00 1
  0.35000E+01  0.14645E+00  0.50000E+00 1
  0.38536E+01  0.14645E+00  0.50000E+00 1
  0.40000E+01  0.14645E+00  0.50000E+00 1
  0.30000E+01  0.50000E+00  0.50000E+00 1
  0.31464E+01  0.50000E+00  0.50000E+00 1
  0.35000E+01  0.50000E+00  0.50000E+00 1
  0.38536E+01  0.50000E+00  0.50000E+00 1
  0.40000E+01  0.50000E+00  0.50000E+00 1
  0.30000E+01  0.85355E+00  0.50000E+00 1
  0.31464E+01  0.85355E+00  0.50000E+00 1
  0.35000E+01  0.85355E+00  0.50000E+00 1
  0.38536E+01  0.85355E+00  0.50000E+00 1
  0.40000E+01  0.85355E+00  0.50000E+00 1
  0.30000E+01  0.10000E+01  0.50000E+00 1
  0.31464E+01  0.10000E+01  0.50000E+00 1
  0.35000E+01  0.10000E+01  0.50000E+00 1
  0.38536E+01  0.10000E+01  0.50000E+00 1
  0.40000E+01  0.10000E+01  0.50000E+00 1
  0.30000E+01  0.00000E+00  0.85355E+00 1
  0.31464E+01  0.00000E+00  0.85355E+00 1
  0.35000E+01  0.00000E+00  0.85355E+00 1
  0.38536E+01  0.00000E+00  0.85355E+00 1
  0.40000E+01  0.00000E+00  0.85355E+00 1
  0.30000E+01  0.14645E+00  0.85355E+00 1
  0.31464E+01  0.14645E+00  0.85355E+00 1
  0.35000E+01  0.14645E+00  0.85355E+00 1
  0.38536E+01  0.14645E+00  0.85355E+00 1
  0.40000E+01  0.14645E+00  0.85355E+00 1
  0.30000E+01  0.50000E+00  0.85355E+00 1
  0.31464E+01  0.50000E+00  0.85355E+00 1
  0.35000E+01  0.50000E+00  0.85355E+00 1
  0.38536E+01  0.50000E+00  0.85355E+00 1
  0.40000E+01  0.50000E+00  0.85355E+00 1
  0.30000E+01  0.85355E+00  0.85355E+00 1
  0.31464E+01  0.85355E+00  0.85355E+00 1
  0.35000E+01  0.85355E+00  0.85355E+00 1
  0.38536E+01  0.85355E+00  0.85355E+00 1
  0.40000E+01  0.85355E+00  0.85355E+00 1
  0.30000E+01  0.10000E+01  0.85355E+00 1
  0.31464E+01  0.10000E+01  0.85355E+00 1
  0.35000E+01  0.10000E+01  0.85355E+00 1
  0.38536E+01  0.10000E+01  0.85355E+00 1
  0.40000E+01  0.10000E+01  0.85355E+00 1
  0.30000E+01  0.00000E+00  0.10000E+01 1
  0.31464E+01  0.00000E+00  0.10000E+01 1
  0.35000E+01  0.00000E+00  0.10000E+01 1
  0.38536E+01  0.00000E+00  0.10000E+01 1
  0.40000E+01  0.00000E+00  0.10000E+01 1
  0.30000E+01  0.14645E+00  0.10000E+01 1
  0.31464E+01  0.14645E+00  0.10000E+01 1
  0.35000E+01  0.14645E+00  0.10000E+01 1
  0.38536E+01  0.14645E+00  0.10000E+01 1
  0.40000E+01  0.14645E+00  0.10000E+01 1
  0.30000E+01  0.50000E+00  0.10000E+01 1
  0.31464E+01  0.50000E+00  0.10000E+01 1
  0.35000E+01  0.50000E+00  0.10000E+01 1
  0.38536E+01  0.50000E+00  0.10000E+01 1
  0.40000E+01  0.50000E+00  0.10000E+01 1
  0.30000E+01  0.85355E+00  0.10000E+01 1
  0.31464E+01  0.85355E+00  0.10000E+01 1
  0.35000E+01  0.85355E+00  0.10000E+01 1
  0.38536E+01  0.85355E+00  0.10000E+01 1
  0.40000E+01  0.85355E+00  0.10000E+01 1
  0.30000E+01  0.10000E+01  0.10000E+01 1
  0.31464E+01  0.10000E+01  0.10000E+01 1
  0.35000E+01  0.10000E+01  0.10000E+01 1
  0.38536E+01  0.10000E+01  0.10000E+01 1
  0.40000E+01  0.10000E+01  0.10000E+01 1
 ZONE I=           5 ,J=           5 ,K=           5 , F=POINT
  0.40000E+01  0.00000E+00  0.00000E+00 1
  0.41464E+01  0.00000E+00  0.00000E+00 1
  0.45000E+01  0.00000E+00  0.00000E+00 1
  0.48536E+01  0.00000E+00  0.00000E+00 1
  0.50000E+01  0.00000E+00  0.00000E+00 1
  0.40000E+01  0.14645E+00  0.00000E+00 1
  0.41464E+01  0.14645E+00  0.00000E+00 1
  0.45000E+01  0.14645E+00  0.00000E+00 1
  0.48536E+01  0.14645E+00  0.00000E+00 1
  0.50000E+01  0.14645E+00  0.00000E+00 1
  0.40000E+01  0.50000E+00  0.00000E+00 1
  0.41464E+01  0.50000E+00  0.00000E+00 1
  0.45000E+01  0.50000E+00  0.00000E+00 1
  0.48536E+01  0.50000E+00  0.00000E+00 1
  0.50000E+01  0.50000E+00  0.00000E+00 1
  0.40000E+01  0.85355E+00  0.00000E+00 1
  0.41464E+01  0.85355E+00  0.00000E+00 1
  0.45000E+01  0.85355E+00  0.00000E+00 1
  0.48536E+01  0.85355E+00  0.00000E+00 1
  0.50000E+01  0.85355E+00  0.00000E+00 1
  0.40000E+01  0.10000E+01  0.00000E+00 1
  0.41464E+01  0.10000E+01  0.00000E+00 1
  0.45000E+01  0.10000E+01  0.00000E+00 1
  0.48536E+01  0.10000E+01  0.00000E+00 1
  0.50000E+01  0.10000E+01  0.00000E+00 1
  0.40000E+01  0.00000E+00  0.14645E+00 1
  0.41464E+01  0.00000E+00  0.14645E+00 1
  0.45000E+01  0.00000E+00  0.14645E+00 1
  0.48536E+01  0.00000E+00  0.14645E+00 1
  0.50000E+01  0.00000E+00  0.14645E+00 1
  0.40000E+01  0.14645E+00  0.14645E+00 1
  0.41464E+01  0.14645E+00  0.14645E+00 1
  0.45000E+01  0.14645E+00  0.14645E+00 1
  0.48536E+01  0.14645E+00  0.14645E+00 1
  0.50000E+01  0.14645E+00  0.14645E+00 1
  0.40000E+01  0.50000E+00  0.14645E+00 1
  0.41464E+01  0.50000E+00  0.14645E+00 1
  0.45000E+01  0.50000E+00  0.14645E+00 1
  0.48536E+01  0.50000E+00  0.14645E+00 1
  0.50000E+01  0.50000E+00  0.14645E+00 1
  0.40000E+01  0.85355E+00  0.14645E+00 1
  0.41464E+01  0.85355E+00  0.14645E+00 1
  0.45000E+01  0.85355E+00  0.14645E+00 1
  0.48536E+01  0.85355E+00  0.14645E+00 1
  0.50000E+01  0.85355E+00  0.14645E+00 1
  0.40000E+01  0.10000E+01  0.14645E+00 1
  0.41464E+01  0.10000E+01  0.14645E+00 1
  0.45000E+01  0.10000E+01  0.14645E+00 1
  0.48536E+01  0.10000E+01  0.14645E+00 1
  0.50000E+01  0.10000E+01  0.14645E+00 1
  0.40000E+01  0.00000E+00  0.50000E+00 1
  0.41464E+01  0.00000E+00  0.50000E+00 1
  0.45000E+01  0.00000E+00  0.50000E+00 1
  0.48536E+01  0.00000E+00  0.50000E+00 1
  0.50000E+01  0.00000E+00  0.50000E+00 1
  0.40000E+01  0.14645E+00  0.50000E+00 1
  0.41464E+01  0.14645E+00  0.50000E+00 1
  0.45000E+01  0.14645E+00  0.50000E+00 1
  0.48536E+01  0.14645E+00  0.50000E+00 1
  0.50000E+01  0.14645E+00  0.50000E+00 1
  0.40000E+01  0.50000E+00  0.50000E+00 1
  0.41464E+01  0.50000E+00  0.50000E+00 1
  0.45000E+01  0.50000E+00  0.50000E+00 1
  0.48536E+01  0.50000E+00  0.50000E+00 1
  0.50000E+01  0.50000E+00  0.50000E+00 1
  0.40000E+01  0.85355E+00  0.50000E+00 1
  0.41464E+01  0.85355E+00  0.50000E+00 1
  0.45000E+01  0.85355E+00  0.50000E+00 1
  0.48536E+01  0.85355E+00  0.50000E+00 1
  0.50000E+01  0.85355E+00  0.50000E+00 1
  0.40000E+01  0.10000E+01  0.50000E+00 1
  0.41464E+01  0.10000E+01  0.50000E+00 1
  0.45000E+01  0.10000E+01  0.50000E+00 1
  0.48536E+01  0.10000E+01  0.50000E+00 1
  0.50000E+01  0.10000E+01  0.50000E+00 1
  0.40000E+01  0.00000E+00  0.85355E+00 1
  0.41464E+01  0.00000E+00  0.85355E+00 1
  0.45000E+01  0.00000E+00  0.85355E+00 1
  0.48536E+01  0.00000E+00  0.85355E+00 1
  0.50000E+01  0.00000E+00  0.85355E+00 1
  0.40000E+01  0.14645E+00  0.85355E+00 1
  0.41464E+01  0.14645E+00  0.85355E+00 1
  0.45000E+01  0.14645E+00  0.85355E+00 1
  0.48536E+01  0.14645E+00  0.85355E+00 1
  0.50000E+01  0.14645E+00  0.85355E+00 1
  0.40000E+01  0.50000E+00  0.85355E+00 1
  0.41464E+01  0.50000E+00  0.85355E+00 1
  0.45000E+01  0.50000E+00  0.85355E+00 1
  0.48536E+01  0.50000E+00  0.85355E+00 1
  0.50000E+01  0.50000E+00  0.85355E+00 1
  0.40000E+01  0.85355E+00  0.85355E+00 1
  0.41464E+01  0.85355E+00  0.85355E+00 1
  0.45000E+01  0.85355E+00  0.85355E+00 1
  0.48536E+01  0.85355E+00  0.85355E+00 1
  0.50000E+01  0.85355E+00  0.85355E+00 1
  0.40000E+01  0.10000E+01  0.85355E+00 1
  0.41464E+01  0.10000E+01  0.85355E+00 1
  0.45000E+01  0.10000E+01  0.85355E+00 1
  0.48536E+01  0.10000E+01  0.85355E+00 1
  0.50000E+01  0.10000E+01  0.85355E+00 1
  0.40000E+01  0.00000E+00  0.10000E+01 1
  0.41464E+01  0.00000E+00  0.10000E+01 1
  0.45000E+01  0.00000E+00  0.10000E+01 1
  0.48536E+01  0.00000E+00  0.10000E+01 1
  0.50000E+01  0.00000E+00  0.10000E+01 1
  0.40000E+01  0.14645E+00  0.10000E+01 1
  0.41464E+01  0.14645E+00  0.10000E+01 1
  0.45000E+01  0.14645E+00  0.10000E+01 1
  0.48536E+01  0.14645E+00  0.10000E+01 1
  0.50000E+01  0.14645E+00  0.10000E+01 1
  0.40000E+01  0.50000E+00  0.10000E+01 1
  0.41464E+01  0.50000E+00  0.10000E+01 1
  0.45000E+01  0.50000E+00  0.10000E+01 1
  0.48536E+01  0.50000E+00  0.10000E+01 1
  0.50000E+01  0.50000E+00  0.10000E+01 1
  0.40000E+01  0.85355E+00  0.10000E+01 1
  0.41464E+01  0.85355E+00  0.10000E+01 1
  0.45000E+01  0.85355E+00  0.10000E+01 1
  0.48536E+01  0.85355E+00  0.10000E+01 1
  0.50000E+01  0.85355E+00  0.10000E+01 1
  0.40000E+01  0.10000E+01  0.10000E+01 1
  0.41464E+01  0.10000E+01  0.10000E+01 1
  0.45000E+01  0.10000E+01  0.10000E+01 1
  0.48536E+01  0.10000E+01  0.10000E+01 1
  0.50000E+01  0.10000E+01  0.10000E+01 1
 ZONE I=           5 ,J=           5 ,K=           5 , F=POINT
  0.00000E+00  0.10000E+01  0.00000E+00 1
  0.14645E+00  0.10000E+01  0.00000E+00 1
  0.50000E+00  0.10000E+01  0.00000E+00 1
  0.85355E+00  0.10000E+01  0.00000E+00 1
  0.10000E+01  0.10000E+01  0.00000E+00 1
  0.00000E+00  0.11464E+01  0.00000E+00 1
  0.14645E+00  0.11464E+01  0.00000E+00 1
  0.50000E+00  0.11464E+01  0.00000E+00 1
  0.85355E+00  0.11464E+01  0.00000E+00 1
  0.10000E+01  0.11464E+01  0.00000E+00 1
  0.00000E+00  0.15000E+01  0.00000E+00 1
  0.14645E+00  0.15000E+01  0.00000E+00 1
  0.50000E+00  0.15000E+01  0.00000E+00 1
  0.85355E+00  0.15000E+01  0.00000E+00 1
  0.10000E+01  0.15000E+01  0.00000E+00 1
  0.00000E+00  0.18536E+01  0.00000E+00 1
  0.14645E+00  0.18536E+01  0.00000E+00 1
  0.50000E+00  0.18536E+01  0.00000E+00 1
  0.85355E+00  0.18536E+01  0.00000E+00 1
  0.10000E+01  0.18536E+01  0.00000E+00 1
  0.00000E+00  0.20000E+01  0.00000E+00 1
  0.14645E+00  0.20000E+01  0.00000E+00 1
  0.50000E+00  0.20000E+01  0.00000E+00 1
  0.85355E+00  0.20000E+01  0.00000E+00 1
  0.10000E+01  0.20000E+01  0.00000E+00 1
  0.00000E+00  0.10000E+01  0.14645E+00 1
  0.14645E+00  0.10000E+01  0.14645E+00 1
  0.50000E+00  0.10000E+01  0.14645E+00 1
  0.85355E+00  0.10000E+01  0.14645E+00 1
  0.10000E+01  0.10000E+01  0.14645E+00 1
  0.00000E+00  0.11464E+01  0.14645E+00 1
  0.14645E+00  0.11464E+01  0.14645E+00 1
  0.50000E+00  0.11464E+01  0.14645E+00 1
  0.85355E+00  0.11464E+01  0.14645E+00 1
  0.10000E+01  0.11464E+01  0.14645E+00 1
  0.00000E+00  0.15000E+01  0.14645E+00 1
  0.14645E+00  0.15000E+01  0.14645E+00 1
  0.50000E+00  0.15000E+01  0.14645E+00 1
  0.85355E+00  0.15000E+01  0.14645E+00 1
  0.10000E+01  0.15000E+01  0.14645E+00 1
  0.00000E+00  0.18536E+01  0.14645E+00 1
  0.14645E+00  0.18536E+01  0.14645E+00 1
  0.50000E+00  0.18536E+01  0.14645E+00 1
  0.85355E+00  0.18536E+01  0.14645E+00 1
  0.10000E+01  0.18536E+01  0.14645E+00 1
  0.00000E+00  0.20000E+01  0.14645E+00 1
  0.14645E+00  0.20000E+01  0.14645E+00 1
  0.50000E+00  0.20000E+01  0.14645E+00 1
  0.85355E+00  0.20000E+01  0.14645E+00 1
  0.10000E+01  0.20000E+01  0.14645E+00 1
  0.00000E+00  0.10000E+01  0.50000E+00 1
  0.14645E+00  0.10000E+01  0.50000E+00 1
  0.50000E+00  0.10000E+01  0.50000E+00 1
  0.85355E+00  0.10000E+01  0.50000E+00 1
  0.10000E+01  0.10000E+01  0.50000E+00 1
  0.00000E+00  0.11464E+01  0.50000E+00 1
  0.14645E+00  0.11464E+01  0.50000E+00 1
  0.50000E+00  0.11464E+01  0.50000E+00 1
  0.85355E+00  0.11464E+01  0.50000E+00 1
  0.10000E+01  0.11464E+01  0.50000E+00 1
  0.00000E+00  0.15000E+01  0.50000E+00 1
  0.14645E+00  0.15000E+01  0.50000E+00 1
  0.50000E+00  0.15000E+01  0.50000E+00 1
  0.85355E+00  0.15000E+01  0.50000E+00 1
  0.10000E+01  0.15000E+01  0.50000E+00 1
  0.00000E+00  0.18536E+01  0.50000E+00 1
  0.14645E+00  0.18536E+01  0.50000E+00 1
  0.50000E+00  0.18536E+01  0.50000E+00 1
  0.85355E+00  0.18536E+01  0.50000E+00 1
  0.10000E+01  0.18536E+01  0.50000E+00 1
  0.00000E+00  0.20000E+01  0.50000E+00 1
  0.14645E+00  0.20000E+01  0.50000E+00 1
  0.50000E+00  0.20000E+01  0.50000E+00 1
  0.85355E+00  0.20000E+01  0.50000E+00 1
  0.10000E+01  0.20000E+01  0.50000E+00 1
  0.00000E+00  0.10000E+01  0.85355E+00 1
  0.14645E+00  0.10000E+01  0.85355E+00 1
  0.50000E+00  0.10000E+01  0.85355E+00 1