 VARIABLES = "X", "Y", "Z", "Material ID"
 ZONE F=FEPOINT, ET=QUADRILATERAL, N=         485 E=         421
  -9.0386596057630921       -9.0501000068756490        0.0000000000000000                1
  -4.0342747304695248       -9.0299326996317699        0.0000000000000000                1
  0.59414975052217234       -8.9020316948303897        0.0000000000000000                1
   6.2394919815522414       -9.4509978110527229        0.0000000000000000                1
  -9.1012391054993333       -4.0273408545832234        0.0000000000000000                1
  0.68547615027876008       -3.9826187328997906        0.0000000000000000                1
   6.0070479238436540       -3.8888870276752225        0.0000000000000000                1
   10.627568197694385       -3.4217547114733815        0.0000000000000000                1
  -9.0119410690371300        1.0446789902977087        0.0000000000000000                1
  -4.0237436537918603        1.0282084670947893        0.0000000000000000                1
  0.65184828291782237       0.81443669790084894        0.0000000000000000                1
   6.0904969455224114        2.6877749531884461        0.0000000000000000                1
   9.7506080788258700       0.51873858701261610        0.0000000000000000                1
  -9.1562112360074810        5.9093811577786779        0.0000000000000000                1
  -4.4285805658493862        6.0379713889535438        0.0000000000000000                1
  0.77704202769338160        5.9818097459574799        0.0000000000000000                1
   3.4679474073297816        5.9602989458279270        0.0000000000000000                1
   10.121257956470538        4.3179134913486754        0.0000000000000000                1
  -4.4321396868616114        10.625566584756582        0.0000000000000000                1
  0.84251662162912777        10.681481346962860        0.0000000000000000                1
   5.5644860926991466        8.7389326003309939        0.0000000000000000                1
  -8.6845588084133762       -9.9784971287163255        0.0000000000000000                1
  -9.9616280578906178       -8.6817042640707456        0.0000000000000000                1
  -6.5684372117067866       -11.264150096195424        0.0000000000000000                1
  -3.9801709063219315       -11.407019307493687        0.0000000000000000                1
  -6.4374549186756260       -9.0269406153518066        0.0000000000000000                1
  -7.3436394005616039       -11.111726918698896        0.0000000000000000                1
  -4.7902521957918376       -12.402349984709867        0.0000000000000000                1
  -3.9809790614698031       -12.433707378805744        0.0000000000000000                1
  -5.3117188526655648       -11.610547013062510        0.0000000000000000                1
  -7.7604755188178727       -10.291815961775017        0.0000000000000000                1
  -6.4758364731929534       -10.207614437602253        0.0000000000000000                1
  -7.6657639445510322       -8.9644091301008899        0.0000000000000000                1
  -5.2636938328886353       -10.254062973524910        0.0000000000000000                1
  -4.0110220843928639       -10.242048294763130        0.0000000000000000                1
  -5.2421566006960889       -9.0695142167793517        0.0000000000000000                1
  -1.5138153917650108       -11.395471886690602        0.0000000000000000                1
   1.2336955845449864       -11.101932986487592        0.0000000000000000                1
  -1.3870948227896207       -8.9211561823332488        0.0000000000000000                1
  -2.8161130421676792       -12.536733695495133        0.0000000000000000                1
  -1.5494216917445585       -12.615784159527413        0.0000000000000000                1
  -2.7567077606736801       -11.393802959328241        0.0000000000000000                1
 -0.21681120821364253       -12.622413961968645        0.0000000000000000                1
   1.1764730712492395       -12.611328760816377        0.0000000000000000                1
 -0.25165710959942866       -11.271623141181625        0.0000000000000000                1
  -2.7371306797345429       -10.203582266378810        0.0000000000000000                1
  -1.4385077114722828       -10.188034587293393        0.0000000000000000                1
  -2.7605441310365557       -8.9552034515955032        0.0000000000000000                1
 -0.42280971328624944       -10.259864134977567        0.0000000000000000                1
   3.3168073403081113       -11.466599146740041        0.0000000000000000                1
   5.2543026784349012       -11.200978605096687        0.0000000000000000                1
   3.4373337206113739       -9.0096294131735188        0.0000000000000000                1
   2.2883505618930746       -12.685198917443604        0.0000000000000000                1
   8.2856315664526559       -8.8254868184125534        0.0000000000000000                1
  -11.241694390287018       -6.5527878957307948        0.0000000000000000                1
  -8.6996235777117956       -6.2995447070926636        0.0000000000000000                1
  -11.416227235900786       -4.0157300156015694        0.0000000000000000                1
  -11.091350331970641       -7.3307983433626056        0.0000000000000000                1
  -10.245677932773376       -7.7417648128783281        0.0000000000000000                1
  -8.8938471408224142       -7.6680577454515175        0.0000000000000000                1
  -10.127959931051070       -6.4254607893259879        0.0000000000000000                1
  -12.402417665694157       -4.8104016481562546        0.0000000000000000                1
  -11.600890504439871       -5.3131343888510862        0.0000000000000000                1
  -12.437245551202837       -4.0619932969696491        0.0000000000000000                1
  -10.215023759391050       -5.2208708864734232        0.0000000000000000                1
  -9.0190505557666256       -5.0914939420770153        0.0000000000000000                1
  -10.255161529157835       -4.0311133706692477        0.0000000000000000                1
  -7.5210258941514772       -7.5233859708932345        0.0000000000000000                1
  -6.3102016288446121       -7.8802292818326780        0.0000000000000000                1
  -7.8393398960785063       -6.6415015683081915        0.0000000000000000                1
  -5.2268501669162806       -7.9851353159875469        0.0000000000000000                1
  -4.1275290126628583       -7.9040572776297378        0.0000000000000000                1
  -1.6860871015445429       -6.3299894856651342        0.0000000000000000                1
   1.2599898525287685       -6.4646357237467731        0.0000000000000000                1
  -1.0976660830014626       -4.0315045912248619        0.0000000000000000                1
  -2.8789509409885752       -7.5494318009608881        0.0000000000000000                1
  -1.4853770917457580       -7.6443975286035837        0.0000000000000000                1
  -2.5230832874202651       -6.6984366486636526        0.0000000000000000                1
 -0.46699041562676297       -7.5312287055955647        0.0000000000000000                1
 -0.33037234792826631       -6.4228711059465740        0.0000000000000000                1
  -1.2594842798572976       -5.1373804946446686        0.0000000000000000                1
 -0.37044368675559569       -5.3305182412540768        0.0000000000000000                1
   3.5202098303829490       -6.5224144999485425        0.0000000000000000                1
   6.0880844773439780       -6.5568440997712196        0.0000000000000000                1
   3.5218984383796035       -3.9171172608148428        0.0000000000000000                1
   8.9110576137480759       -6.6984012950308367        0.0000000000000000                1
   10.699276096653641       -5.6195790089226341        0.0000000000000000                1
   8.3218458719709094       -3.6640188985381128        0.0000000000000000                1
  -11.397386288997907       -1.4002223015002921        0.0000000000000000                1
  -8.8256185446385675       -1.6480444946213335        0.0000000000000000                1
  -11.461471604462430        1.0725195011545254        0.0000000000000000                1
  -12.631553363105320       -2.8969078632617467        0.0000000000000000                1
  -11.403181624480084       -2.8199986372308659        0.0000000000000000                1
  -12.493867870953151       -1.7818786332746026        0.0000000000000000                1
  -13.245541176750713       -2.4397461740168827        0.0000000000000000                1
  -13.234727699577794       -1.8461293824132845        0.0000000000000000                1
  -10.215961827929107       -2.8453590503440607        0.0000000000000000                1
  -9.0312750569153497       -2.9609406505775846        0.0000000000000000                1
  -10.175935103755000       -1.7620375485299447        0.0000000000000000                1
  -12.684242260845210      -0.35546885844146259        0.0000000000000000                1
  -11.384387083760272      -0.37587100434024578        0.0000000000000000                1
  -12.719877835775618       0.92214193243200437        0.0000000000000000                1
  -13.280599414600022       -1.1328836662351935        0.0000000000000000                1
  -12.605714264347672       -1.0101753594817029        0.0000000000000000                1
  -13.328820126411586      -0.46235025297154980        0.0000000000000000                1
  -12.092860474644185      -0.86802185607638027        0.0000000000000000                1
  -12.036984914213763      -0.33366539409621543        0.0000000000000000                1
  -13.349910645789512       0.18699063434786650        0.0000000000000000                1
  -12.706022633320833       0.29026253690672515        0.0000000000000000                1
  -13.346321207910163       0.82785787203673322        0.0000000000000000                1
  -11.989422811342482       0.41220936815232928        0.0000000000000000                1
  -11.269302760346536       0.35020587197554121        0.0000000000000000                1
  -12.164810907649152       0.98783028267496598        0.0000000000000000                1
  -11.702805778387582       0.76046122704604224        0.0000000000000000                1
  -11.408163987574733       0.79254659435504160        0.0000000000000000                1
  -11.766451480304701        1.0277415137014230        0.0000000000000000                1
  -10.180222408275210      -0.34202216253322276        0.0000000000000000                1
  -8.7692079738085162      -0.47880520347488725        0.0000000000000000                1
  -10.149573174315535       0.93970819653201931        0.0000000000000000                1
  -10.730036061131285      -0.86522929889253852        0.0000000000000000                1
  -10.169666030417448      -0.95620676643455504        0.0000000000000000                1
  -10.765443591976336      -0.36922694912425263        0.0000000000000000                1
  -9.5927446587410898      -0.93661767819229635        0.0000000000000000                1
  -9.5458963948637336      -0.39336180318975900        0.0000000000000000                1
  -10.889656728769648       0.75151446945881284        0.0000000000000000                1
  -10.207019016838904       0.21585503116477947        0.0000000000000000                1
  -11.170946329866904        1.1402331418655720        0.0000000000000000                1
  -10.606600736683271       0.66456170164864670        0.0000000000000000                1
  -10.244922943170188       0.71635247548442738        0.0000000000000000                1
  -9.6308621700641606       0.37039938529841199        0.0000000000000000                1
  -8.8844348822370769       0.31730108421614894        0.0000000000000000                1
  -9.5279065646494754       0.92984048544856157        0.0000000000000000                1
  -9.9513296251497536       0.70061321636343532        0.0000000000000000                1
  -9.9297094084964126       0.99457172798091642        0.0000000000000000                1
  -6.4132298031954962        1.0204905167133380        0.0000000000000000                1
  -7.8396136603458819       -1.4001033866116215        0.0000000000000000                1
  -7.6052504689578688      -0.40108330261232816        0.0000000000000000                1
  -6.2879613551681510      -0.18599978692705571        0.0000000000000000                1
  -7.5095858235958071       0.97349173591840721        0.0000000000000000                1
  -8.3372415630552350       0.37501507378174731        0.0000000000000000                1
  -8.3275643649993860       0.97470959742046459        0.0000000000000000                1
  -5.2151141944410506      -0.10785032251485328        0.0000000000000000                1
  -4.1379773907476887      -0.17220592420265149        0.0000000000000000                1
  -5.2121848875414445        1.0563227782831732        0.0000000000000000                1
  -1.7022821898840170       -1.7171635462604307        0.0000000000000000                1
   1.2660940530745350       -1.4645696567791502        0.0000000000000000                1
  -1.3358323767571907        1.1998136960172860        0.0000000000000000                1
  -1.2736813402826030       -2.9200354495559822        0.0000000000000000                1
  -2.5601578383114139       -1.3736303438130295        0.0000000000000000                1
 -0.36803864530291719       -2.6907972116786336        0.0000000000000000                1
 -0.31213999176620083       -1.5925910915984589        0.0000000000000000                1
  -2.8980923399278380      -0.48143816947191853        0.0000000000000000                1
  -1.4665959021111952      -0.33330056620603216        0.0000000000000000                1
  -2.7922726626192911        1.0717470825790170        0.0000000000000000                1
 -0.42506879651983043      -0.46665696565899401        0.0000000000000000                1
   3.4876843870365253       -1.2082062959864561        0.0000000000000000                1
   6.0291289167728239       -1.1271971482049172        0.0000000000000000                1
   3.1604504018174167        1.5310410095543263        0.0000000000000000                1
   7.9396027584814943       -1.4865940375027613        0.0000000000000000                1
  -11.430419578767552        3.4268003031782759        0.0000000000000000                1
  -9.0642347820019893        3.4201727061230853        0.0000000000000000                1
  -11.519990387149537        6.0363862967369402        0.0000000000000000                1
  -12.717908196800215        2.1489143068938690        0.0000000000000000                1
  -11.513868781116837        2.2051790007920409        0.0000000000000000                1
  -12.875274868468987        3.4528998532801296        0.0000000000000000                1
  -13.324225501244959        1.4606527196650390        0.0000000000000000                1
  -12.718837688535611        1.5396621203418981        0.0000000000000000                1
  -13.291459933005871        2.0819534860888083        0.0000000000000000                1
  -12.026081446649989        1.5969117781136439        0.0000000000000000                1
  -11.556080283188439        1.6137363114686545        0.0000000000000000                1
  -12.193793614028841        2.1921944396392941        0.0000000000000000                1
  -11.761215563398361        1.2870534049207851        0.0000000000000000                1
  -11.518583387749032        1.3345506712613178        0.0000000000000000                1
  -11.781735263201643        1.9446816981030517        0.0000000000000000                1
  -11.542587654204146        1.9054373047555331        0.0000000000000000                1
  -11.812166232306163        2.2124504492158978        0.0000000000000000                1
  -13.267778499697323        2.6738095821598891        0.0000000000000000                1
  -12.734111220282761        2.7563609311932287        0.0000000000000000                1
  -13.280796468237821        3.1050745691031492        0.0000000000000000                1
  -12.079347713593036        2.7676177638140991        0.0000000000000000                1
  -11.555154510664645        2.9105585100794111        0.0000000000000000                1
  -12.127003693673839        3.4666312100546328        0.0000000000000000                1
  -11.790148685280046        2.4912888864127192        0.0000000000000000                1
  -11.525870031544951        2.5281423427694976        0.0000000000000000                1
  -10.250183210975514        2.2543978958585438        0.0000000000000000                1
  -9.0332443601246677        2.2452206379289468        0.0000000000000000                1
  -10.288180929332089        3.5022334479808350        0.0000000000000000                1
  -10.851214530592687        2.2373783686008490        0.0000000000000000                1
  -11.226360200833723        1.3602685577239535        0.0000000000000000                1
  -11.224771799286652        1.6138608138198656        0.0000000000000000                1
  -11.086557873758485        1.6918422175131760        0.0000000000000000                1
  -10.999187163897489        1.9529223577023258        0.0000000000000000                1
  -10.890145807670628        1.9509207557540458        0.0000000000000000                1
  -11.199561820042220        2.1493212607328815        0.0000000000000000                1
  -11.077436900729086        1.8032389165770946        0.0000000000000000                1
  -10.960277368850981        2.0902650728824548        0.0000000000000000                1
  -10.836223090097034        2.0584406335702456        0.0000000000000000                1
  -10.994009663164606        2.2195581328160250        0.0000000000000000                1
  -10.200326906674510        1.9864081124224566        0.0000000000000000                1
  -10.555388693872525        2.2610764814671298        0.0000000000000000                1
  -10.689296017149253        2.1012321979800661        0.0000000000000000                1
  -10.553161174812516        2.1179386336696968        0.0000000000000000                1
  -10.704546628702591        2.2521243099004007        0.0000000000000000                1
  -10.413312464791442        2.1146396115488795        0.0000000000000000                1
  -10.255513644171458        2.0819693714484999        0.0000000000000000                1
  -10.405251585948484        2.2596436424324637        0.0000000000000000                1
  -9.6163636461098445        1.6406927805094593        0.0000000000000000                1
  -8.8710905415987291        1.6200444325366834        0.0000000000000000                1
  -9.6346854647297562        2.2489255762494249        0.0000000000000000                1
  -9.8364481664356607        1.3028713330669099        0.0000000000000000                1
  -9.5611295054328114        1.3079056762490699        0.0000000000000000                1
  -9.8464340030982083        1.5423324471413480        0.0000000000000000                1
  -9.3127881364267537        1.3538649983638400        0.0000000000000000                1
  -9.2884894638179123        1.6322332511312427        0.0000000000000000                1
  -9.9687642571821957        1.9034536707283014        0.0000000000000000                1
  -9.5516203706422029        1.9308259312077682        0.0000000000000000                1
  -9.9112689016264977        2.2507908448690355        0.0000000000000000                1
  -9.9004701773662358        1.7302612103034827        0.0000000000000000                1
  -10.115093338922808        1.9669148477303271        0.0000000000000000                1
  -9.7765153840397812        1.7757176010868851        0.0000000000000000                1
  -9.7738963409123460        1.9228680170095049        0.0000000000000000                1
  -10.093037913143682        2.0968613490658954        0.0000000000000000                1
  -9.9295274199032235        2.0858607535666902        0.0000000000000000                1
  -10.088195953697344        2.2521546516966500        0.0000000000000000                1
  -9.7917023612156431        2.0677352582181725        0.0000000000000000                1
  -9.3229427052281988        1.9046229710131335        0.0000000000000000                1
  -10.797595601850571        2.8974285972453639        0.0000000000000000                1
  -10.874587843577174        3.5186257634121749        0.0000000000000000                1
  -11.155043719290743        2.5167399420530319        0.0000000000000000                1
  -10.881108475399788        2.6044410917840985        0.0000000000000000                1
  -11.173723344493919        2.8939988249365545        0.0000000000000000                1
  -11.001617340688469        2.3657958059617137        0.0000000000000000                1
  -10.872408677696413        2.4031544128068347        0.0000000000000000                1
  -10.542453463758337        2.5716281112825849        0.0000000000000000                1
  -10.248858986774827        2.5712002662301727        0.0000000000000000                1
  -10.708711626390574        2.4165934252987920        0.0000000000000000                1
  -10.552937023574376        2.4181192509966842        0.0000000000000000                1
  -10.690248334322364        2.5914638861164438        0.0000000000000000                1
  -10.401269695999682        2.4181725356437265        0.0000000000000000                1
  -10.248366193350153        2.4168408687122809        0.0000000000000000                1
  -10.395362943809577        2.5922704739066931        0.0000000000000000                1
  -10.624291787513494        2.7495453906665150        0.0000000000000000                1
  -10.515424136790632        2.6987073057118494        0.0000000000000000                1
  -10.443772924285126        2.6831849398067229        0.0000000000000000                1
  -11.144093421776523        3.1512806287393729        0.0000000000000000                1
  -10.913748075706735        3.1842585383733075        0.0000000000000000                1
  -10.566561167657952        3.2241687411763023        0.0000000000000000                1
  -10.548749831558577        3.5746521064421621        0.0000000000000000                1
  -10.670838582337392        3.0467579116941814        0.0000000000000000                1
  -10.668280475169821        3.1817501892762556        0.0000000000000000                1
  -10.689976867101885        3.3389708182099467        0.0000000000000000                1
  -10.534850292741369        3.3393571658322108        0.0000000000000000                1
  -10.400667608784833        3.3694602088295649        0.0000000000000000                1
  -9.6831435522269143        2.8629574107578888        0.0000000000000000                1
  -8.8962642175972846        2.8617705024707520        0.0000000000000000                1
  -9.5823530524172025        3.5545829616610938        0.0000000000000000                1
  -9.9513193692804567        2.5671556934144433        0.0000000000000000                1
  -9.5775154551257398        2.5692007914306911        0.0000000000000000                1
  -10.091069964312378        2.4154770042359952        0.0000000000000000                1
  -9.9265913751685257        2.4150072536470972        0.0000000000000000                1
  -10.101080470605247        2.5909604317415642        0.0000000000000000                1
  -9.7950923269553485        2.4279661559999441        0.0000000000000000                1
  -9.7995956002212328        2.5694781875832757        0.0000000000000000                1
  -10.054607258680985        2.6819906395279882        0.0000000000000000                1
  -9.9812185101174329        2.6949093646315694        0.0000000000000000                1
  -9.8665188037646185        2.7416955150313713        0.0000000000000000                1
  -9.3420833586415792        2.5930019135845082        0.0000000000000000                1
  -9.3262810451174651        2.8618015058319410        0.0000000000000000                1
  -9.8815639786818821        3.2826972498834119        0.0000000000000000                1
  -9.6825274137060600        3.1836326559588821        0.0000000000000000                1
  -9.9690624120034013        3.4866546108714256        0.0000000000000000                1
  -9.3652022266615038        3.1364092736850426        0.0000000000000000                1
  -12.646323848807851        4.7761655468968165        0.0000000000000000                1
  -11.493935834068564        4.7622011858341695        0.0000000000000000                1
  -12.729298162927455        4.1935919985397048        0.0000000000000000                1
  -12.113485256564163        4.1261670199547291        0.0000000000000000                1
  -11.472407834763882        4.1092239957152144        0.0000000000000000                1
  -12.109945295354205        4.7573985272362629        0.0000000000000000                1
  -12.623142575866449        5.1719979589119713        0.0000000000000000                1
  -12.220643516538003        5.4292304156532012        0.0000000000000000                1
  -11.513281150038836        5.4146574223457362        0.0000000000000000                1
  -12.063403478717028        6.0627100835860031        0.0000000000000000                1
  -10.244663398743103        4.7767919120644224        0.0000000000000000                1
  -8.8950246250850995        4.8556310583935796        0.0000000000000000                1
  -10.195274277034184        6.1725711321279464        0.0000000000000000                1
  -10.794929196977625        4.0775613461029891        0.0000000000000000                1
  -10.246636972716200        4.2202283606094646        0.0000000000000000                1
  -10.855208520651635        4.7677174220933036        0.0000000000000000                1
  -10.514466323151005        3.7951398723822130        0.0000000000000000                1
  -10.257095214154846        3.8166973916693858        0.0000000000000000                1
  -9.6837699768657313        4.0855559733596323        0.0000000000000000                1
  -8.9651409481325732        4.0995560874526733        0.0000000000000000                1
  -9.6335234142302273        4.8115756723706378        0.0000000000000000                1
  -9.9921941171516711        3.7817208750482849        0.0000000000000000                1
  -10.869830426518567        5.4260543007351361        0.0000000000000000                1
  -10.212565943653773        5.4150531241666968        0.0000000000000000                1
  -10.918514510858255        6.1057590793145629        0.0000000000000000                1
  -9.6999233017883224        5.3384826754380850        0.0000000000000000                1
  -6.4896763580296097        3.5055164793997959        0.0000000000000000                1
  -3.8159760448668569        3.8111016984449955        0.0000000000000000                1
  -6.3842316712620679        6.0013519564119422        0.0000000000000000                1
  -7.9103462015689754        2.2386618531160045        0.0000000000000000                1
  -6.4696805118379430        2.2739052485998021        0.0000000000000000                1
  -7.5881192206605599        3.4625900507271670        0.0000000000000000                1
  -8.4263964151119897        1.5504577244208984        0.0000000000000000                1
  -8.4533412102075793        2.9190392278851132        0.0000000000000000                1
  -8.3904063469450136        3.4556119377761614        0.0000000000000000                1
  -5.2024305735574039        2.3234627393496825        0.0000000000000000                1
  -3.9052504448188055        2.3039813681199668        0.0000000000000000                1
  -5.2549939547298843        3.6610848101743780        0.0000000000000000                1
  -7.8398826991589301        4.6034080546100524        0.0000000000000000                1
  -6.4384973815048285        4.7258927693871611        0.0000000000000000                1
  -7.7671042258471346        5.9779449127874296        0.0000000000000000                1
  -8.4354474196051221        4.0112548913094432        0.0000000000000000                1
  -5.4272805409905693        4.6817494725864313        0.0000000000000000                1
  -1.8130405047904949        3.3021287700635993        0.0000000000000000                1
  0.73815295983781692        3.4941310781469426        0.0000000000000000                1
  -1.6402136585572467        6.0005400630788159        0.0000000000000000                1
  -2.8931600396470682        2.1497417799136485        0.0000000000000000                1
   2.5893319986257159        3.4982294991010368        0.0000000000000000                1
  -9.2566719338749373        8.7104080438401628        0.0000000000000000                1
  -11.376421202812958        7.1926348771233073        0.0000000000000000                1
  -12.007551586376559        6.4555690925321487        0.0000000000000000                1
  -11.579477064340118        6.6851153467027915        0.0000000000000000                1
  -10.560271141898061        7.2916549481228365        0.0000000000000000                1
  -9.1207891533289303        7.2836916879003653        0.0000000000000000                1
  -10.206225085858604        8.3175387423635687        0.0000000000000000                1
  -11.015796304376408        6.6153147418970173        0.0000000000000000                1