 VARIABLES = "X", "Y", "Z", "Material ID"
 ZONE F=FEPOINT, ET=QUADRILATERAL, N=         487 E=         421
  -9.0386463643901660       -9.0501117305696486        0.0000000000000000                1
  -4.0342286657446857       -9.0299594205129168        0.0000000000000000                1
  0.59436865246764747       -8.9019984925991089        0.0000000000000000                1
   6.2402097912220240       -9.4505167176551357        0.0000000000000000                1
  -9.1012060213339652       -4.0271424035380159        0.0000000000000000                1
  0.68550794627904676       -3.9826669357928663        0.0000000000000000                1
   6.0071812646694118       -3.8887231242807236        0.0000000000000000                1
   10.627640746162017       -3.4219317390761907        0.0000000000000000                1
  -9.0119402904372095        1.0446830093384067        0.0000000000000000                1
  -4.0236789599981817        1.0281641464900184        0.0000000000000000                1
  0.65183935794288661       0.81443522612565267        0.0000000000000000                1
   6.0901442345150594        2.6880298122466186        0.0000000000000000                1
   9.7503189069089231       0.51870608510750316        0.0000000000000000                1
  -9.1561528867680053        5.9094752378192288        0.0000000000000000                1
  -4.4286336131213035        6.0379580560201473        0.0000000000000000                1
  0.77688981946158620        5.9818816609402718        0.0000000000000000                1
   3.4675818613502112        5.9605457985821690        0.0000000000000000                1
   10.120558047771151        4.3185734183061273        0.0000000000000000                1
  -4.4326607225906249        10.625382560951461        0.0000000000000000                1
  0.84209408457831059        10.681587782271610        0.0000000000000000                1
   5.5635771870171071        8.7396102043930828        0.0000000000000000                1
  -8.6844027967220221       -9.9786640499165760        0.0000000000000000                1
  -9.9617840973644896       -8.6815621510390368        0.0000000000000000                1
  -6.5690881367885252       -11.263721145362990        0.0000000000000000                1
  -3.9796023830737770       -11.407163728466664        0.0000000000000000                1
  -6.4374770383302522       -9.0269050341559804        0.0000000000000000                1
  -7.3446451356589897       -11.111070981613214        0.0000000000000000                1
  -4.7889960988346623       -12.402781442132351        0.0000000000000000                1
  -3.9797122999051813       -12.434089870991405        0.0000000000000000                1
  -5.3114303148071800       -11.610583392848801        0.0000000000000000                1
  -7.7608313823416522       -10.291595628308093        0.0000000000000000                1
  -6.4760620092102021       -10.207447335215651        0.0000000000000000                1
  -7.6657972811152666       -8.9643876476660811        0.0000000000000000                1
  -5.2636702840679659       -10.254023757033158        0.0000000000000000                1
  -4.0108325494600630       -10.242087663020040        0.0000000000000000                1
  -5.2421297462226457       -9.0695138977546286        0.0000000000000000                1
  -1.5131616241594690       -11.395546489752448        0.0000000000000000                1
   1.2342307448087391       -11.101875944152008        0.0000000000000000                1
  -1.3869980805233679       -8.9211729311856320        0.0000000000000000                1
  -2.8148914047043454       -12.536982204914787        0.0000000000000000                1
  -1.5480691459947382       -12.615934809771030        0.0000000000000000                1
  -2.7560757946697927       -11.393927611014266        0.0000000000000000                1
 -0.21552232961763870       -12.622458105515229        0.0000000000000000                1
   1.1774577735268577       -12.611272990915124        0.0000000000000000                1
 -0.25103693684485723       -11.271640501406869        0.0000000000000000                1
  -2.7368834116685243       -10.203632047100864        0.0000000000000000                1
  -1.4382339642611932       -10.188064198852741        0.0000000000000000                1
  -2.7604833973761824       -8.9552333063049812        0.0000000000000000                1
 -0.42251861001478702       -10.259869010061434        0.0000000000000000                1
   3.3173237522035892       -11.466392397216516        0.0000000000000000                1
   5.2552536214938206       -11.200444393016790        0.0000000000000000                1
   3.4377222761576198       -9.0094287862342064        0.0000000000000000                1
   2.2889126883635136       -12.685143365157412        0.0000000000000000                1
   8.2862676387402292       -8.8248535157771339        0.0000000000000000                1
  -11.241249133073726       -6.5534698718249835        0.0000000000000000                1
  -8.6995133513899532       -6.2996761215474928        0.0000000000000000                1
  -11.416291152225540       -4.0154580391085384        0.0000000000000000                1
  -11.090686225669007       -7.3318161958468062        0.0000000000000000                1
  -10.245438913260321       -7.7421463758853442        0.0000000000000000                1
  -8.8937761251564087       -7.6681592077140568        0.0000000000000000                1
  -10.127759128171411       -6.4257297171418735        0.0000000000000000                1
  -12.402729221280696       -4.8095486676733792        0.0000000000000000                1
  -11.600879434798967       -5.3129862027974095        0.0000000000000000                1
  -12.437451854230629       -4.0613848514566095        0.0000000000000000                1
  -10.214940918439149       -5.2208928567692059        0.0000000000000000                1
  -9.0189910732186451       -5.0914562068520635        0.0000000000000000                1
  -10.255149521259126       -4.0309813058756481        0.0000000000000000                1
  -7.5209631910214991       -7.5234243811576533        0.0000000000000000                1
  -6.3100381110806287       -7.8802659465234512        0.0000000000000000                1
  -7.8392698913039318       -6.6416012598728091        0.0000000000000000                1
  -5.2267233523263057       -7.9851901232844362        0.0000000000000000                1
  -4.1275754747157514       -7.9041208786726962        0.0000000000000000                1
  -1.6861355676110541       -6.3301262012017068        0.0000000000000000                1
   1.2600811547858715       -6.4646190889809887        0.0000000000000000                1
  -1.0976576590591738       -4.0316590654323106        0.0000000000000000                1
  -2.8789930506745778       -7.5494674593554336        0.0000000000000000                1
  -1.4853648387363469       -7.6444372717226612        0.0000000000000000                1
  -2.5230886235586065       -6.6984755624664212        0.0000000000000000                1
 -0.46695194112121391       -7.5312552776294650        0.0000000000000000                1
 -0.33035934153796492       -6.4229280858955304        0.0000000000000000                1
  -1.2595478758121212       -5.1375739951036161        0.0000000000000000                1
 -0.37045292289469728       -5.3306073738818895        0.0000000000000000                1
   3.5204163682389180       -6.5222814654323296        0.0000000000000000                1
   6.0884367942792235       -6.5565267257431570        0.0000000000000000                1
   3.5219709441945621       -3.9170502540442711        0.0000000000000000                1
   8.9116886524630665       -6.6976496321292194        0.0000000000000000                1
   10.699869834086792       -5.6189530168908242        0.0000000000000000                1
   8.3220122816871882       -3.6638335298097573        0.0000000000000000                1
  -11.397400178742130       -1.4001441949206410        0.0000000000000000                1
  -8.8255958906057792       -1.6479650174951217        0.0000000000000000                1
  -11.461475461348375        1.0725304852208779        0.0000000000000000                1
  -12.631646952566719       -2.8965426592298691        0.0000000000000000                1
  -11.403226486985286       -2.8197983788413246        0.0000000000000000                1
  -12.493906249180398       -1.7817311446272956        0.0000000000000000                1
  -13.245639717162520       -2.4392622705062550        0.0000000000000000                1
  -13.234785040249028       -1.8458797725108789        0.0000000000000000                1
  -10.215961052820163       -2.8452225522435421        0.0000000000000000                1
  -9.0312316873711218       -2.9607386483860285        0.0000000000000000                1
  -10.175931823728257       -1.7619586231073110        0.0000000000000000                1
  -12.684237750632517      -0.35547369059239414        0.0000000000000000                1
  -11.384386999629209      -0.37585169605874058        0.0000000000000000                1
  -12.719883643070430       0.92221845333173391        0.0000000000000000                1
  -13.280602209206613       -1.1330262087289928        0.0000000000000000                1
  -12.605723827640835       -1.0101686875663227        0.0000000000000000                1
  -13.328801996904891      -0.46253823694641816        0.0000000000000000                1
  -12.092867085706827      -0.86799551196459968        0.0000000000000000                1
  -12.036985079173217      -0.33364772433779022        0.0000000000000000                1
  -13.349888567782649       0.18727048847401639        0.0000000000000000                1
  -12.706016443987959       0.29034510521469792        0.0000000000000000                1
  -13.346313704232024       0.82830293503930952        0.0000000000000000                1
  -11.989421411048816       0.41223111322975003        0.0000000000000000                1
  -11.269296114517578       0.35021465165360388        0.0000000000000000                1
  -12.164814358832494       0.98784304174732662        0.0000000000000000                1
  -11.702805649684953       0.76047008691511941        0.0000000000000000                1
  -11.408163676145689       0.79255637794089517        0.0000000000000000                1
  -11.766453361277671        1.0277477204067944        0.0000000000000000                1
  -10.180217499077870      -0.34200989391316716        0.0000000000000000                1
  -8.7691920681295290      -0.47877501433198111        0.0000000000000000                1
  -10.149583881968685       0.93969332258261562        0.0000000000000000                1
  -10.730036460273691      -0.86520176661168069        0.0000000000000000                1
  -10.169662009061701      -0.95617444871173407        0.0000000000000000                1
  -10.765440831192567      -0.36921227156489145        0.0000000000000000                1
  -9.5927357114510929      -0.93658497659321960        0.0000000000000000                1
  -9.5458884971394458      -0.39334259212227218        0.0000000000000000                1
  -10.889633933237041       0.75151676479835594        0.0000000000000000                1
  -10.207010710247632       0.21585822987727343        0.0000000000000000                1
  -10.909179687500000       0.92675781250000000        0.0000000000000000                1
  -11.187500000000000       0.68750000000000000        0.0000000000000000                1
  -11.170960522961311        1.1402546580308364        0.0000000000000000                1
  -10.606568089507007       0.66456066543050896        0.0000000000000000                1
  -10.244909505546534       0.71634983358740634        0.0000000000000000                1
  -9.6308584821163592       0.37040400973970944        0.0000000000000000                1
  -8.8844283956875945       0.31731344957110447        0.0000000000000000                1
  -9.5279089849993674       0.92984008540780805        0.0000000000000000                1
  -9.9513295339709984       0.70060914226904103        0.0000000000000000                1
  -9.9297214013089459       0.99456046824697342        0.0000000000000000                1
  -6.4132395064966019        1.0204803518531422        0.0000000000000000                1
  -7.8395500026261491       -1.4000491115640921        0.0000000000000000                1
  -7.6052273823160963      -0.40104268355950118        0.0000000000000000                1
  -6.2880455978215712      -0.18602065398568901        0.0000000000000000                1
  -7.5095903543815998       0.97349734818276545        0.0000000000000000                1
  -8.3372339992145008       0.37503041967891509        0.0000000000000000                1
  -8.3275617620175844       0.97471767162444622        0.0000000000000000                1
  -5.2151036567222180      -0.10791975183678335        0.0000000000000000                1
  -4.1377890766532675      -0.17229304847700549        0.0000000000000000                1
  -5.2121656490279564        1.0562928942132574        0.0000000000000000                1
  -1.7021271575732559       -1.7173590185474990        0.0000000000000000                1
   1.2661041853433206       -1.4645844158587789        0.0000000000000000                1
  -1.3357929075391142        1.1997801527336887        0.0000000000000000                1
  -1.2735978125875018       -2.9202129697744987        0.0000000000000000                1
  -2.5599196754100131       -1.3738568914993137        0.0000000000000000                1
 -0.36799143552838093       -2.6908939549939039        0.0000000000000000                1
 -0.31208624367271381       -1.5926705711360620        0.0000000000000000                1
  -2.8978947230197813      -0.48156926629579805        0.0000000000000000                1
  -1.4664998313697510      -0.33339152962774643        0.0000000000000000                1
  -2.7921995352751257        1.0716986981713608        0.0000000000000000                1
 -0.42502208769075656      -0.46671252694315751        0.0000000000000000                1
   3.4876554296239530       -1.2081540287674606        0.0000000000000000                1
   6.0290685606510905       -1.1271110775541227        0.0000000000000000                1
   3.1603406555199709        1.5311214635305506        0.0000000000000000                1
   7.9395480743963711       -1.4865508767911493        0.0000000000000000                1
  -11.430417057042316        3.4267982372708605        0.0000000000000000                1
  -9.0642337614123889        3.4201718452318346        0.0000000000000000                1
  -11.519845333352377        6.0366174453071775        0.0000000000000000                1
  -12.717949699309596        2.1486624955329923        0.0000000000000000                1
  -11.513869404126702        2.2051756863036940        0.0000000000000000                1
  -12.875264253348632        3.4529415744285785        0.0000000000000000                1
  -13.324290140294551        1.4604009288155588        0.0000000000000000                1
  -12.718866525387588        1.5395590666643040        0.0000000000000000                1
  -13.291585938578574        2.0811251452936723        0.0000000000000000                1
  -12.026089452829149        1.5968868807297549        0.0000000000000000                1
  -11.556082095760276        1.6137423704285656        0.0000000000000000                1
  -12.193806178236599        2.1921228203162069        0.0000000000000000                1
  -11.761218347925006        1.2870553477066162        0.0000000000000000                1
  -11.518586708773492        1.3345606868692301        0.0000000000000000                1
  -11.781738154183133        1.9446709516690199        0.0000000000000000                1
  -11.542588675357175        1.9054383948083664        0.0000000000000000                1
  -11.812169517515667        2.2124328995142171        0.0000000000000000                1
  -13.267849558537115        2.6732974016137585        0.0000000000000000                1
  -12.734133632589954        2.7561831921700275        0.0000000000000000                1
  -13.280731486273801        3.1052327241268882        0.0000000000000000                1
  -12.079354042067916        2.7675701057613411        0.0000000000000000                1
  -11.555154794584210        2.9105480164469797        0.0000000000000000                1
  -12.127002828063889        3.4666179272405646        0.0000000000000000                1
  -11.790151196364459        2.4912719272713182        0.0000000000000000                1
  -11.525870619643737        2.5281341836461544        0.0000000000000000                1
  -10.250168561740189        2.2543923325258621        0.0000000000000000                1
  -9.0332455603804735        2.2452209950436410        0.0000000000000000                1
  -10.288184225475014        3.5022377057191232        0.0000000000000000                1
  -10.851214111066048        2.2373769596134903        0.0000000000000000                1
  -11.226364270763476        1.3602937185220874        0.0000000000000000                1
  -11.224769667434842        1.6138920898993534        0.0000000000000000                1
  -11.086557295415854        1.6918704947337708        0.0000000000000000                1
  -10.999183584711670        1.9529244107016706        0.0000000000000000                1
  -10.890136861098844        1.9509326868279437        0.0000000000000000                1
  -11.199561450454448        2.1493215559147312        0.0000000000000000                1
  -11.077441767535628        1.8032392017617001        0.0000000000000000                1
  -10.960276055626450        2.0902665453296212        0.0000000000000000                1
  -10.836224991793385        2.0584405736355893        0.0000000000000000                1
  -10.994009011189521        2.2195576141015620        0.0000000000000000                1
  -10.200277374178965        1.9863866855978696        0.0000000000000000                1
  -10.555381667239018        2.2610728027658866        0.0000000000000000                1
  -10.689296413046044        2.1012291021673750        0.0000000000000000                1
  -10.553151256370549        2.1179357306575599        0.0000000000000000                1
  -10.704544456385401        2.2521218261813551        0.0000000000000000                1
  -10.413283437156510        2.1146293376995215        0.0000000000000000                1
  -10.255469890393512        2.0819524393499962        0.0000000000000000                1
  -10.405238301433963        2.2596382082980186        0.0000000000000000                1
  -9.6163700043880738        1.6407012440427815        0.0000000000000000                1
  -8.8710909802924931        1.6200463888425818        0.0000000000000000                1
  -9.6346874678401360        2.2489265988877483        0.0000000000000000                1
  -9.8364563688850470        1.3028691603148570        0.0000000000000000                1
  -9.5611343062154415        1.3079073060485416        0.0000000000000000                1
  -9.8464456716386586        1.5423502920101662        0.0000000000000000                1
  -9.3127899992375500        1.3538668348411664        0.0000000000000000                1
  -9.2884914520912574        1.6322357924564190        0.0000000000000000                1
  -9.9687783251626900        1.9034807503630564        0.0000000000000000                1
  -9.5516239570889176        1.9308312204678741        0.0000000000000000                1
  -9.9112672395024557        2.2507912081668331        0.0000000000000000                1
  -9.9004910423241839        1.7302981730412050        0.0000000000000000                1
  -10.115080409102491        1.9669176144468197        0.0000000000000000                1
  -9.7765251630273884        1.7757341624348160        0.0000000000000000                1
  -9.7739033619802509        1.9228805824894462        0.0000000000000000                1
  -10.093023762817193        2.0968596977964720        0.0000000000000000                1
  -9.9295270337352299        2.0858669363706128        0.0000000000000000                1
  -10.088187415535639        2.2521520612964898        0.0000000000000000                1
  -9.7917057384196937        2.0677421836988219        0.0000000000000000                1
  -9.3229444707350719        1.9046251402927292        0.0000000000000000                1
  -10.797588819419689        2.8974087501572212        0.0000000000000000                1
  -10.874585306304521        3.5186252008390277        0.0000000000000000                1
  -11.155042400265778        2.5167350742558883        0.0000000000000000                1
  -10.881104439882815        2.6044317772753094        0.0000000000000000                1
  -11.173721436239841        2.8939913982840788        0.0000000000000000                1
  -11.001616399396053        2.3657935925554812        0.0000000000000000                1
  -10.872406879247043        2.4031506706936527        0.0000000000000000                1
  -10.542446302172610        2.5716175128615175        0.0000000000000000                1
  -10.248857618050501        2.5711994070057886        0.0000000000000000                1
  -10.708708363091375        2.4165885234203817        0.0000000000000000                1
  -10.552932219373492        2.4181143781386480        0.0000000000000000                1
  -10.690241664718560        2.5914517014740017        0.0000000000000000                1
  -10.401264056842088        2.4181686636260724        0.0000000000000000                1
  -10.248361204701443        2.4168379653762266        0.0000000000000000                1
  -10.395359958657147        2.5922652563656485        0.0000000000000000                1
  -10.624276418247083        2.7495150291102326        0.0000000000000000                1
  -10.515407742874771        2.6986851125772664        0.0000000000000000                1
  -10.443761834717481        2.6831718652585050        0.0000000000000000                1
  -11.144091755770146        3.1512748136240551        0.0000000000000000                1
  -10.913746748039589        3.1842497631613784        0.0000000000000000                1
  -10.566562208808431        3.2241546839799740        0.0000000000000000                1
  -10.548746716658824        3.5746549111401666        0.0000000000000000                1
  -10.670838640584044        3.0467420351948258        0.0000000000000000                1
  -10.668284034313649        3.1817341172194178        0.0000000000000000                1
  -10.689974723313476        3.3389662263812050        0.0000000000000000                1
  -10.534838780799221        3.3393612027580279        0.0000000000000000                1
  -10.400653230567388        3.3694741674841895        0.0000000000000000                1
  -9.6831482394081743        2.8629498210395425        0.0000000000000000                1
  -8.8962645395179454        2.8617696820942986        0.0000000000000000                1
  -9.5823511067135421        3.5545791469280013        0.0000000000000000                1
  -9.9513247413595955        2.5671476207335684        0.0000000000000000                1
  -9.5775187688937891        2.5691964736361275        0.0000000000000000                1
  -10.091067486587757        2.4154743175643385        0.0000000000000000                1
  -9.9265919231306512        2.4150044755461098        0.0000000000000000                1
  -10.101081308873672        2.5909559752457128        0.0000000000000000                1
  -9.7950944124639356        2.4279634375570445        0.0000000000000000                1
  -9.7996010271823497        2.5694706714016080        0.0000000000000000                1
  -10.054617831641014        2.6819783563177197        0.0000000000000000                1
  -9.9812340865649336        2.6948897484347585        0.0000000000000000                1
  -9.8665318372404229        2.7416761144649371        0.0000000000000000                1
  -9.3420849142650884        2.5929999441848022        0.0000000000000000                1
  -9.3262819373774057        2.8617985768167071        0.0000000000000000                1
  -9.8815526978681376        3.2826796230501234        0.0000000000000000                1
  -9.6825239609678029        3.1836257361435316        0.0000000000000000                1
  -9.9690628371664438        3.4866468309511096        0.0000000000000000                1
  -9.3652018543549751        3.1364059675523208        0.0000000000000000                1
  -12.646191425107427        4.7764735329911563        0.0000000000000000                1
  -11.493910810930917        4.7622538497723710        0.0000000000000000                1
  -12.729314590639458        4.1935089296942758        0.0000000000000000                1
  -12.113466793831606        4.1262027448692207        0.0000000000000000                1
  -11.472397038653655        4.1092453936394691        0.0000000000000000                1
  -12.109891862643547        4.7575224436993606        0.0000000000000000                1
  -12.622926519253474        5.1725405368731110        0.0000000000000000                1
  -12.220585512072612        5.4293754657415079        0.0000000000000000                1
  -11.513232111776162        5.4147450869549516        0.0000000000000000                1
  -12.063445911335224        6.0626000567816458        0.0000000000000000                1
  -10.244648487764087        4.7768156676274165        0.0000000000000000                1
  -8.8950108243429185        4.8556530252905086        0.0000000000000000                1
  -10.195146793791732        6.1727695122288653        0.0000000000000000                1
  -10.794923822129432        4.0775708163118960        0.0000000000000000                1
  -10.246633087359170        4.2202348361948294        0.0000000000000000                1
  -10.855190524053757        4.7677490011652228        0.0000000000000000                1
  -10.514465413595586        3.7951422195423961        0.0000000000000000                1
  -10.257094999122478        3.8166988158483988        0.0000000000000000                1
  -9.6837665169005600        4.0855598191482221        0.0000000000000000                1
  -8.9651373187890773        4.0995606696287616        0.0000000000000000                1
  -9.6335090673166750        4.8115977311680815        0.0000000000000000                1
  -9.9921941480282257        3.7817199636570020        0.0000000000000000                1
  -10.869773673487124        5.4261464071566490        0.0000000000000000                1
  -10.212519172434389        5.4151266248563514        0.0000000000000000                1
  -10.918351530843504        6.1060183315763199        0.0000000000000000                1
  -9.6998920154108923        5.3385311679315306        0.0000000000000000                1
  -6.4896768553615454        3.5055155454926648        0.0000000000000000                1
  -3.8159847960335713        3.8110951238595852        0.0000000000000000                1
  -6.3842475439136797        6.0013514939358350        0.0000000000000000                1
  -7.9103474186479348        2.2386623631878604        0.0000000000000000                1
  -6.4696807786112940        2.2739005138489445        0.0000000000000000                1
  -7.5881188078600612        3.4625914845558530        0.0000000000000000                1
  -8.4263967331838057        1.5504603415716411        0.0000000000000000                1
  -8.4533414255266912        2.9190393018488701        0.0000000000000000                1
  -8.3904055477665160        3.4556131341789524        0.0000000000000000                1
  -5.2024224429218533        2.3234510438348965        0.0000000000000000                1
  -3.9052315232013366        2.3039646249352388        0.0000000000000000                1
  -5.2549969987795988        3.6610799946399926        0.0000000000000000                1
  -7.8398771097073494        4.6034195699231901        0.0000000000000000                1
  -6.4385017982652517        4.7258943731537855        0.0000000000000000                1
  -7.7670935262390701        5.9779736895062445        0.0000000000000000                1
  -8.4354449640648532        4.0112585507596297        0.0000000000000000                1
  -5.4272903986709604        4.6817462742092690        0.0000000000000000                1
  -1.8130551828844377        3.3021265302607974        0.0000000000000000                1
  0.73807934345640103        3.4941731310045103        0.0000000000000000                1
  -1.6402993755857596        6.0005483844220695        0.0000000000000000                1
  -2.8931357059544980        2.1497232780591289        0.0000000000000000                1
   2.5891939214336799        3.4983233654513572        0.0000000000000000                1
  -9.2566476476274744        8.7105076381143363        0.0000000000000000                1
  -11.375735254827781        7.1937234467463353        0.0000000000000000                1
  -12.007344121212542        6.4558664542390565        0.0000000000000000                1
  -11.578966984914192        6.6859557256862310        0.0000000000000000                1
  -10.559911316513897        7.2922022034472294        0.0000000000000000                1
  -9.1206962864277212        7.2838515506185706        0.0000000000000000                1