 VARIABLES = "X", "Y", "Z", "Material ID"
 ZONE F=FEPOINT, ET=QUADRILATERAL, N=         480 E=         415
  -9.0386463643901660       -9.0501117305696486        0.0000000000000000                1
  -4.0342286657446857       -9.0299594205129168        0.0000000000000000                1
  0.59436865246763348       -8.9019984925990947        0.0000000000000000                1
   6.2402097912220169       -9.4505167176551286        0.0000000000000000                1
  -9.1012060213758783       -4.0271424034944401        0.0000000000000000                1
  0.68550794627071654       -3.9826669357840427        0.0000000000000000                1
   6.0071812646672784       -3.8887231242785023        0.0000000000000000                1
   10.627640746161916       -3.4219317390760908        0.0000000000000000                1
  -9.0119408272008581        1.0446839565982311        0.0000000000000000                1
  -4.0236790179017836        1.0281642287440735        0.0000000000000000                1
  0.65183935600364429       0.81443522884385322        0.0000000000000000                1
   6.0901442344434846        2.6880298123236548        0.0000000000000000                1
   9.7503189069059868       0.51870608511048388        0.0000000000000000                1
  -9.1560284445879745        5.9094024366385369        0.0000000000000000                1
  -4.4286332622753264        6.0379588258666184        0.0000000000000000                1
  0.77688981186611183        5.9818816725417614        0.0000000000000000                1
   3.4675818604740556        5.9605457996407747        0.0000000000000000                1
   10.120558047769038        4.3185734183082660        0.0000000000000000                1
  -4.4326607300793528        10.625382575962114        0.0000000000000000                1
  0.84209408266084185        10.681587785000872        0.0000000000000000                1
   5.5635771869449773        8.7396102044706510        0.0000000000000000                1
  -8.6844027967220221       -9.9786640499165760        0.0000000000000000                1
  -9.9617840973644896       -8.6815621510390368        0.0000000000000000                1
  -6.5690881367885252       -11.263721145362990        0.0000000000000000                1
  -3.9796023830737770       -11.407163728466664        0.0000000000000000                1
  -6.4374770383302522       -9.0269050341559804        0.0000000000000000                1
  -7.3446451356589897       -11.111070981613214        0.0000000000000000                1
  -4.7889960988346623       -12.402781442132351        0.0000000000000000                1
  -3.9797122999051813       -12.434089870991405        0.0000000000000000                1
  -5.3114303148071800       -11.610583392848801        0.0000000000000000                1
  -7.7608313823416522       -10.291595628308093        0.0000000000000000                1
  -6.4760620092102021       -10.207447335215651        0.0000000000000000                1
  -7.6657972811152666       -8.9643876476660811        0.0000000000000000                1
  -5.2636702840679659       -10.254023757033158        0.0000000000000000                1
  -4.0108325494600630       -10.242087663020040        0.0000000000000000                1
  -5.2421297462226457       -9.0695138977546286        0.0000000000000000                1
  -1.5131616241594690       -11.395546489752448        0.0000000000000000                1
   1.2342307448087388       -11.101875944152008        0.0000000000000000                1
  -1.3869980805233688       -8.9211729311856320        0.0000000000000000                1
  -2.8148914047043454       -12.536982204914787        0.0000000000000000                1
  -1.5480691459947382       -12.615934809771030        0.0000000000000000                1
  -2.7560757946697927       -11.393927611014266        0.0000000000000000                1
 -0.21552232961763870       -12.622458105515229        0.0000000000000000                1
   1.1774577735268577       -12.611272990915124        0.0000000000000000                1
 -0.25103693684485739       -11.271640501406869        0.0000000000000000                1
  -2.7368834116685243       -10.203632047100864        0.0000000000000000                1
  -1.4382339642611934       -10.188064198852741        0.0000000000000000                1
  -2.7604833973761824       -8.9552333063049812        0.0000000000000000                1
 -0.42251861001478719       -10.259869010061434        0.0000000000000000                1
   3.3173237522035888       -11.466392397216516        0.0000000000000000                1
   5.2552536214938197       -11.200444393016790        0.0000000000000000                1
   3.4377222761576047       -9.0094287862341957        0.0000000000000000                1
   2.2889126883635136       -12.685143365157412        0.0000000000000000                1
   8.2862676387402239       -8.8248535157771286        0.0000000000000000                1
  -11.241249133073772       -6.5534698718249373        0.0000000000000000                1
  -8.6995133513900278       -6.2996761215474182        0.0000000000000000                1
  -11.416291152228023       -4.0154580391033310        0.0000000000000000                1
  -11.090686225669007       -7.3318161958468036        0.0000000000000000                1
  -10.245438913260324       -7.7421463758853406        0.0000000000000000                1
  -8.8937761251564122       -7.6681592077140532        0.0000000000000000                1
  -10.127759128171496       -6.4257297171417873        0.0000000000000000                1
  -12.402729221280669       -4.8095486676733454        0.0000000000000000                1
  -11.600879434799632       -5.3129862027966785        0.0000000000000000                1
  -12.437451854225035       -4.0613848514604136        0.0000000000000000                1
  -10.214940918441092       -5.2208928567672279        0.0000000000000000                1
  -9.0189910732206524       -5.0914562068500553        0.0000000000000000                1
  -10.255149521290509       -4.0309813058416841        0.0000000000000000                1
  -7.5209631910215000       -7.5234243811576533        0.0000000000000000                1
  -6.3100381110806287       -7.8802659465234512        0.0000000000000000                1
  -7.8392698913039327       -6.6416012598728074        0.0000000000000000                1
  -5.2267233523263057       -7.9851901232844362        0.0000000000000000                1
  -4.1275754747157514       -7.9041208786726962        0.0000000000000000                1
  -1.6861355676110639       -6.3301262012016970        0.0000000000000000                1
   1.2600811547855075       -6.4646190889806210        0.0000000000000000                1
  -1.0976576590597178       -4.0316590654317661        0.0000000000000000                1
  -2.8789930506745778       -7.5494674593554336        0.0000000000000000                1
  -1.4853648387363492       -7.6444372717226594        0.0000000000000000                1
  -2.5230886235586070       -6.6984755624664212        0.0000000000000000                1
 -0.46695194112122207       -7.5312552776294579        0.0000000000000000                1
 -0.33035934153810959       -6.4229280858953857        0.0000000000000000                1
  -1.2595478758122693       -5.1375739951034669        0.0000000000000000                1
 -0.37045292289497944       -5.3306073738816062        0.0000000000000000                1
   3.5204163682385601       -6.5222814654319698        0.0000000000000000                1
   6.0884367942790574       -6.5565267257429900        0.0000000000000000                1
   3.5219709441883378       -3.9170502540377070        0.0000000000000000                1
   8.9116886524630239       -6.6976496321291785        0.0000000000000000                1
   10.699869834086785       -5.6189530168908171        0.0000000000000000                1
   8.3220122816868489       -3.6638335298094185        0.0000000000000000                1
  -11.397400173897214       -1.4001441979972944        0.0000000000000000                1
  -8.8255959025092530       -1.6479650023140893        0.0000000000000000                1
  -11.461475239914529        1.0725290393361344        0.0000000000000000                1
  -12.631646952439020       -2.8965426593163168        0.0000000000000000                1
  -11.403226486821437       -2.8197983789398942        0.0000000000000000                1
  -12.493906248142249       -1.7817311452887530        0.0000000000000000                1
  -13.245639717124796       -2.4392622705321716        0.0000000000000000                1
  -13.234785039657726       -1.8458797728744996        0.0000000000000000                1
  -10.215961053147836       -2.8452225518418612        0.0000000000000000                1
  -9.0312316881143531       -2.9607386475595900        0.0000000000000000                1
  -10.175931824355619       -1.7619586223300583        0.0000000000000000                1
  -12.684237602059151      -0.35547376752126958        0.0000000000000000                1
  -11.384386956110374      -0.37585172395618455        0.0000000000000000                1
  -12.719873361991542       0.92221445297303362        0.0000000000000000                1
  -13.280602200694101       -1.1330262133299793        0.0000000000000000                1
  -12.605723814881035       -1.0101686948690760        0.0000000000000000                1
  -13.328801900498926      -0.46253828080269216        0.0000000000000000                1
  -12.092867074587726      -0.86799551875593572        0.0000000000000000                1
  -12.036984960728796      -0.33364779354995561        0.0000000000000000                1
  -13.349887729071179       0.18727019618884463        0.0000000000000000                1
  -12.706015059643892       0.29034446940072911        0.0000000000000000                1
  -13.346308316525878       0.82830187483358586        0.0000000000000000                1
  -11.989420219815328       0.41223039294516356        0.0000000000000000                1
  -11.269296025621026       0.35021458370498509        0.0000000000000000                1
  -12.164804517435318       0.98783700349477332        0.0000000000000000                1
  -11.702804940291248       0.76046950355529996        0.0000000000000000                1
  -11.408163511376912       0.79255612198602066        0.0000000000000000                1
  -11.766449272878585        1.0277439550893765        0.0000000000000000                1
  -10.180217500784286      -0.34200989197618648        0.0000000000000000                1
  -8.7691921106268360      -0.47877496105551426        0.0000000000000000                1
  -10.149583883087775       0.93969332374875891        0.0000000000000000                1
  -10.730036459011005      -0.86520176743647748        0.0000000000000000                1
  -10.169662009692168      -0.95617444795920681        0.0000000000000000                1
  -10.765440827152824      -0.36921227441714616        0.0000000000000000                1
  -9.5927357141702281      -0.93658497363226789        0.0000000000000000                1
  -9.5458885076567057      -0.39334258012961154        0.0000000000000000                1
  -10.889633929410822       0.75151675433801424        0.0000000000000000                1
  -10.207010713004863       0.21585823298528650        0.0000000000000000                1
  -10.909179687500000       0.92675781250000000        0.0000000000000000                1
  -11.187500000000000       0.68750000000000000        0.0000000000000000                1
  -11.170960854854924        1.1402538253882681        0.0000000000000000                1
  -10.606568087455788       0.66456066364691491        0.0000000000000000                1
  -10.244909507389243       0.71634983562206189        0.0000000000000000                1
  -9.6308585223125274       0.37040406036649948        0.0000000000000000                1
  -8.8844285349569532       0.31731364633720960        0.0000000000000000                1
  -9.5279090766636454       0.92984020191382200        0.0000000000000000                1
  -9.9513295407982945       0.70060914973891786        0.0000000000000000                1
  -9.9297214169243055       0.99456048612309467        0.0000000000000000                1
  -6.4132400561814995        1.0204821362832708        0.0000000000000000                1
  -7.8395500260621285       -1.4000490815136821        0.0000000000000000                1
  -7.6052275945827787      -0.40104230780599454        0.0000000000000000                1
  -6.2880457846885314      -0.18602034062571801        0.0000000000000000                1
  -7.5095911045002861       0.97350020459779218        0.0000000000000000                1
  -8.3372342524620038       0.37503081528381216        0.0000000000000000                1
  -8.3275625072163866       0.97471973315693528        0.0000000000000000                1
  -5.2151037397008588      -0.10791962586789451        0.0000000000000000                1
  -4.1377890980317558      -0.17229302122791929        0.0000000000000000                1
  -5.2121658938013500        1.0562933399082002        0.0000000000000000                1
  -1.7021271576929315       -1.7173590184213214        0.0000000000000000                1
   1.2661041852121993       -1.4645844157067140        0.0000000000000000                1
  -1.3357929120208207        1.1997801588215002        0.0000000000000000                1
  -1.2735978125935121       -2.9202129697683770        0.0000000000000000                1
  -2.5599196755989357       -1.3738568913001898        0.0000000000000000                1
 -0.36799143553720387       -2.6908939549847339        0.0000000000000000                1
 -0.31208624376405592       -1.5926705710331819        0.0000000000000000                1
  -2.8978947266010380      -0.48156926215479373        0.0000000000000000                1
  -1.4664998321390754      -0.33339152876650635        0.0000000000000000                1
  -2.7921995467264322        1.0716987125015169        0.0000000000000000                1
 -0.42502208797868429      -0.46671252661286228        0.0000000000000000                1
   3.4876554295463507       -1.2081540286786177        0.0000000000000000                1
   6.0290685606380539       -1.1271110775403805        0.0000000000000000                1
   3.1603406551665589        1.5311214639450483        0.0000000000000000                1
   7.9395480743946258       -1.4865508767893854        0.0000000000000000                1
  -11.423250544838575        3.4315159178074914        0.0000000000000000                1
  -9.0636610237948023        3.4203765162462485        0.0000000000000000                1
  -11.519840385084612        6.0365747413020889        0.0000000000000000                1
  -12.717722356462614        2.1486639205655407        0.0000000000000000                1
  -11.513397591753431        2.2041444076139860        0.0000000000000000                1
  -12.874844325690255        3.4531693479572096        0.0000000000000000                1
  -13.324266092908399        1.4603995259086577        0.0000000000000000                1
  -12.718809033154187        1.5395490389798769        0.0000000000000000                1
  -13.291519830730122        2.0811300070566134        0.0000000000000000                1
  -12.026015798422984        1.5968333411785645        0.0000000000000000                1
  -11.556072867601891        1.6136798425869086        0.0000000000000000                1
  -12.193407309108292        2.1920406896435747        0.0000000000000000                1
  -11.761211492676960        1.2870462716231119        0.0000000000000000                1
  -11.518584713010297        1.3345500644895212        0.0000000000000000                1
  -11.781631147718542        1.9445006887844165        0.0000000000000000                1
  -11.542513163257723        1.9051489375199908        0.0000000000000000                1
  -11.811691833583327        2.2120484579059569        0.0000000000000000                1
  -13.267741486794826        2.6733206124125326        0.0000000000000000                1
  -12.733672192374817        2.7562827680745836        0.0000000000000000                1
  -13.280626363978367        3.1052658210662725        0.0000000000000000                1
  -12.077649123602932        2.7676213995740633        0.0000000000000000                1
  -11.549548940886462        2.9091746906379496        0.0000000000000000                1
  -12.125216367358634        3.4677135075656880        0.0000000000000000                1
  -11.788961162427951        2.4906577650811195        0.0000000000000000                1
  -11.523667636799948        2.5260761857134528        0.0000000000000000                1
  -10.250210238744652        2.2543535865662698        0.0000000000000000                1
  -9.0332396404977366        2.2452487029745720        0.0000000000000000                1
  -10.248059312446511        3.5206656395533580        0.0000000000000000                1
  -10.851552934663507        2.2363060654149138        0.0000000000000000                1
  -11.226365987231260        1.3602861727591444        0.0000000000000000                1
  -11.224772818773763        1.6138376025623018        0.0000000000000000                1
  -11.086565180307758        1.6918318376093997        0.0000000000000000                1
  -10.999212323050203        1.9526350841113760        0.0000000000000000                1
  -10.890173769407665        1.9508534189958753        0.0000000000000000                1
  -11.199350793973968        2.1479795888068658        0.0000000000000000                1
  -11.077448717251279        1.8030897218335358        0.0000000000000000                1
  -10.960379710090869        2.0898574748996697        0.0000000000000000                1
  -10.836335103291137        2.0581726799738767        0.0000000000000000                1
  -10.994146747764086        2.2181871861178672        0.0000000000000000                1
  -10.200279112014764        1.9863860448808430        0.0000000000000000                1
  -10.555625801680465        2.2606390663220903        0.0000000000000000                1
  -10.689411713876197        2.1010423382571912        0.0000000000000000                1
  -10.553232146983365        2.1178312354092630        0.0000000000000000                1
  -10.704891576495848        2.2513228243016807        0.0000000000000000                1
  -10.413325213638014        2.1145867058323109        0.0000000000000000                1
  -10.255484154268528        2.0819414650011701        0.0000000000000000                1
  -10.405357746521167        2.2594787576024720        0.0000000000000000                1
  -9.6163704692911338        1.6407020045783203        0.0000000000000000                1
  -8.8710923538678426        1.6200516007988981        0.0000000000000000                1
  -9.6346892323491229        2.2489364068907478        0.0000000000000000                1
  -9.8364564115275197        1.3028692121841279        0.0000000000000000                1
  -9.5611344892208425        1.3079075654724277        0.0000000000000000                1
  -9.8464457383598454        1.5423503732864965        0.0000000000000000                1
  -9.3127904055544857        1.3538674785774449        0.0000000000000000                1
  -9.2884924505870821        1.6322385337877428        0.0000000000000000                1
  -9.9687787736062994        1.9034809156613830        0.0000000000000000                1
  -9.5516251932722902        1.9308345163141920        0.0000000000000000                1
  -9.9112701640948480        2.2507924005283404        0.0000000000000000                1
  -9.9004911435374758        1.7302982771704396        0.0000000000000000                1
  -10.115081617527171        1.9669172981776373        0.0000000000000000                1
  -9.7765254002661450        1.7757344800287609        0.0000000000000000                1
  -9.7739039854072640        1.9228815755609270        0.0000000000000000                1
  -10.093028421298362        2.0968578002103997        0.0000000000000000                1
  -9.9295285000993196        2.0858675721464817        0.0000000000000000                1
  -10.088198288264218        2.2521463520200009        0.0000000000000000                1
  -9.7917067268998430        2.0677437058572243        0.0000000000000000                1
  -9.3229461323572718        1.9046301785678423        0.0000000000000000                1
  -10.806654541856352        2.8597507155809336        0.0000000000000000                1
  -10.905975672705230        3.5570478515314239        0.0000000000000000                1
  -11.153802991090505        2.5108426442443137        0.0000000000000000                1
  -10.882322536161796        2.5943740464159020        0.0000000000000000                1
  -11.161500531999300        2.8859358745367718        0.0000000000000000                1
  -11.001896227356886        2.3628645064758178        0.0000000000000000                1
  -10.873057191415691        2.3997670571405485        0.0000000000000000                1
  -10.543327259863780        2.5694000126415006        0.0000000000000000                1
  -10.248920397116542        2.5711229529088637        0.0000000000000000                1
  -10.709526804413152        2.4139656263447793        0.0000000000000000                1
  -10.553481574589794        2.4168640929598153        0.0000000000000000                1
  -10.692120320307685        2.5846760027282909        0.0000000000000000                1
  -10.401496332294407        2.4177910530238682        0.0000000000000000                1
  -10.248431182430211        2.4167605843728697        0.0000000000000000                1
  -10.395630305134372        2.5917627496686793        0.0000000000000000                1
  -10.626654221044582        2.7421167644086450        0.0000000000000000                1
  -10.516183452429274        2.6967011236049228        0.0000000000000000                1
  -10.444060694178495        2.6826347486012345        0.0000000000000000                1
  -11.121357491654770        3.1503389914581441        0.0000000000000000                1
  -10.811260075674532        3.1846184565051998        0.0000000000000000                1
  -10.616364199792921        3.2834912302503199        0.0000000000000000                1
  -10.531347932983614        3.4883458012764770        0.0000000000000000                1
  -9.6830473973078579        2.8630576291189711        0.0000000000000000                1
  -8.8961851750445184        2.8618622118423342        0.0000000000000000                1
  -9.5800802327333248        3.5553473022958650        0.0000000000000000                1
  -9.9513278317619704        2.5671512034828874        0.0000000000000000                1
  -9.5775106914495378        2.5692331242833468        0.0000000000000000                1
  -10.091083512516926        2.4154645385699514        0.0000000000000000                1
  -9.9265957191162482        2.4150063722758999        0.0000000000000000                1
  -10.101092978710341        2.5909482528279377        0.0000000000000000                1
  -9.7950967033176930        2.4279699267277444        0.0000000000000000                1
  -9.7995992122555435        2.5694872017547179        0.0000000000000000                1
  -10.054619569019376        2.6819787046217152        0.0000000000000000                1
  -9.9812354675662736        2.6948935238447502        0.0000000000000000                1
  -9.8665254001014357        2.7416964578074463        0.0000000000000000                1
  -9.3420764273750940        2.5930489348631216        0.0000000000000000                1
  -9.3261705385693983        2.8619351641290556        0.0000000000000000                1
  -9.8803141667250234        3.2836145400745878        0.0000000000000000                1
  -9.6817050546632686        3.1841151198634998        0.0000000000000000                1
  -9.9628382896846066        3.4893050679708106        0.0000000000000000                1
  -9.3648582203096691        3.1366858203539314        0.0000000000000000                1
  -12.646134612290934        4.7766394824704808        0.0000000000000000                1
  -11.494212068035488        4.7625816340750049        0.0000000000000000                1
  -12.729061585299654        4.1937988067014187        0.0000000000000000                1
  -12.112895225970567        4.1273816207588281        0.0000000000000000                1
  -11.473876140893815        4.1129210316797709        0.0000000000000000                1
  -12.109971991550303        4.7580077619738166        0.0000000000000000                1
  -12.622927704926431        5.1725931633769076        0.0000000000000000                1
  -12.220614976323478        5.4294344734798852        0.0000000000000000                1
  -11.513275850957037        5.4147079403492846        0.0000000000000000                1
  -12.063447748334603        6.0625895477897993        0.0000000000000000                1
  -10.243870264867875        4.7759132562186606        0.0000000000000000                1
  -8.8945900961723083        4.8555853876857880        0.0000000000000000                1
  -10.195092598417103        6.1726818461216828        0.0000000000000000                1
  -10.795552948858166        4.0748406999836737        0.0000000000000000                1
  -10.243130999450759        4.2173782652083238        0.0000000000000000                1
  -10.855138680757458        4.7671841754922086        0.0000000000000000                1
  -10.507075107061018        3.7801945786865341        0.0000000000000000                1
  -10.245408141026562        3.8100087743781752        0.0000000000000000                1
  -9.6806650446646216        4.0851709310466902        0.0000000000000000                1
  -8.9644136584201899        4.0996126153188168        0.0000000000000000                1
  -9.6326305358658999        4.8111686849450876        0.0000000000000000                1
  -9.9833779078476681        3.7828532945360154        0.0000000000000000                1
  -10.869724157348653        5.4259275204606805        0.0000000000000000                1
  -10.212329617628457        5.4148421626809071        0.0000000000000000                1
  -10.918325621602154        6.1059389006329150        0.0000000000000000                1
  -9.6996511925944464        5.3383247483001455        0.0000000000000000                1
  -6.4896735578946458        3.5055221350890058        0.0000000000000000                1
  -3.8159849295934403        3.8110954432714719        0.0000000000000000                1
  -6.3842408313305210        6.0013536710663482        0.0000000000000000                1
  -7.9103413281529766        2.2386813801345991        0.0000000000000000                1
  -6.4696812710678255        2.2739050685737170        0.0000000000000000                1
  -7.5881002605156445        3.4626152824687337        0.0000000000000000                1
  -8.4263981500462499        1.5504654156072231        0.0000000000000000                1
  -8.4533015319087799        2.9190933683574105        0.0000000000000000                1
  -8.3902950032168686        3.4556822634341819        0.0000000000000000                1
  -5.2024227972365695        2.3234520287379645        0.0000000000000000                1
  -3.9052316279115975        2.3039648011169866        0.0000000000000000                1
  -5.2549971519491967        3.6610814879808640        0.0000000000000000                1
  -7.8397847573321808        4.6034332870047407        0.0000000000000000                1
  -6.4384936001761881        4.7258999123995613        0.0000000000000000                1
  -7.7670528046265250        5.9779673411675338        0.0000000000000000                1
  -8.4352921348469874        4.0113167642467200        0.0000000000000000                1
  -5.4272902154034783        4.6817478832062847        0.0000000000000000                1
  -1.8130552115384857        3.3021265969452194        0.0000000000000000                1
  0.73807933768493506        3.4941731395640097        0.0000000000000000                1
  -1.6402994072783901        6.0005484822179342        0.0000000000000000                1
  -2.8931357283700172        2.1497233083733036        0.0000000000000000                1
   2.5891939206621051        3.4983233663683846        0.0000000000000000                1
  -9.2566453913228397        8.7105053888251813        0.0000000000000000                1
  -11.375732325487460        7.1937183264556417        0.0000000000000000                1
  -12.007341504120514        6.4558584149816900        0.0000000000000000                1
  -11.578961724201449        6.6859411253001948        0.0000000000000000                1
  -10.559898330078841        7.2921837787933992        0.0000000000000000                1
  -9.1206786845488654        7.2838370608277652        0.0000000000000000                1
  -10.205910839214106        8.3179567272143071        0.0000000000000000                1
  -11.015485041625155        6.6157660299792793        0.0000000000000000                1
  -8.8810882116296703        9.6709828000852358        0.0000000000000000                1
  -6.5489711082705435        8.5167823950633199        0.0000000000000000                1
  -3.7897478568005329        8.4642708029729068        0.0000000000000000                1