 VARIABLES = "X", "Y", "Z", "Material ID"
 ZONE F=FEPOINT, ET=QUADRILATERAL, N=        1188 E=        1010
  -18.057999876860290        4.3066849309861874        0.0000000000000000                1
  -16.807007824589252        4.0405736692807732        0.0000000000000000                1
  -14.946990573905641        3.7736178772300071        0.0000000000000000                1
  -12.862596722850997        3.6959687615356387        0.0000000000000000                1
  -10.878488340416197        3.8087962295326472        0.0000000000000000                1
  -9.5203495952955954        3.9140735599890744        0.0000000000000000                1
   10.352983752257712        3.5616199028870281        0.0000000000000000                1
   11.784870638954567        3.5779440640280242        0.0000000000000000                1
   13.785879864510511        3.6456842333768700        0.0000000000000000                1
   15.770107682849691        3.8590305264611446        0.0000000000000000                1
   17.217272175761934        4.0643977118948396        0.0000000000000000                1
  -18.329899867185382        5.5615899270631264        0.0000000000000000                1
  -16.633011514363645        5.6970343817107683        0.0000000000000000                1
  -14.817658513297292        5.6445243825669174        0.0000000000000000                1
  -12.877547440920665        5.6007548939957719        0.0000000000000000                1
  -10.912342016812724        5.5434304882941259        0.0000000000000000                1
  -8.7694476349804500        5.1994586809803831        0.0000000000000000                1
  -7.2284027192298996        5.5659874157380154        0.0000000000000000                1
   7.8348079635212304        5.1944670988789285        0.0000000000000000                1
   9.4159600711789793        4.8864248536188066        0.0000000000000000                1
   11.520986827760762        5.3923847552590916        0.0000000000000000                1
   13.472821520496520        5.5717685395504812        0.0000000000000000                1
   15.435758018112359        5.7046153332513061        0.0000000000000000                1
   17.691976836406432        5.7232745035526733        0.0000000000000000                1
   19.063157040871207        6.7926282412891892        0.0000000000000000                1
  -18.483846747321717        7.4410717126538941        0.0000000000000000                1
  -16.624002891786589        7.4523148532403676        0.0000000000000000                1
  -14.791867520837364        7.4722706029508608        0.0000000000000000                1
  -12.876046850598293        7.4837584865797044        0.0000000000000000                1
  -10.877248328720501        7.4379432664354139        0.0000000000000000                1
  -8.8271495050317537        7.3424578821334396        0.0000000000000000                1
  -6.5414753216399619        7.0433338940134957        0.0000000000000000                1
  -4.5520269702431175        7.7213655188489296        0.0000000000000000                1
  -3.3036963027084338        8.0034360619398619        0.0000000000000000                1
   4.0175168263323799        7.5982092402407506        0.0000000000000000                1
   5.1603216564438226        7.3718058664526502        0.0000000000000000                1
   7.0756660120982611        6.7409786408084633        0.0000000000000000                1
   9.2592664855451758        7.1692522597414703        0.0000000000000000                1
   11.249921503357957        7.3659516534249017        0.0000000000000000                1
   13.211541412364467        7.5074901642515828        0.0000000000000000                1
   15.140194213877546        7.6032363676356258        0.0000000000000000                1
   16.974232047905161        7.8257261452386961        0.0000000000000000                1
   18.695883981507734        8.2409038796907126        0.0000000000000000                1
  -18.293807885237893        9.3227897138104527        0.0000000000000000                1
  -16.607166106011118        9.1796501468625316        0.0000000000000000                1
  -14.831959172106643        9.2898147046519828        0.0000000000000000                1
  -12.914334761840321        9.4171836531981068        0.0000000000000000                1
  -10.905896948392199        9.4389576895203984        0.0000000000000000                1
  -8.8441407634603291        9.3886445876332267        0.0000000000000000                1
  -6.7576740152256800        9.3943362099138366        0.0000000000000000                1
  -4.7191136745769562        9.4758050018131392        0.0000000000000000                1
  -2.5002787495245014        9.2905446323245311        0.0000000000000000                1
 -0.41418709525923958        9.6729250800189188        0.0000000000000000                1
   1.3141663199577018        9.5581122005569057        0.0000000000000000                1
   3.2384415584125521        9.0091666265464774        0.0000000000000000                1
   5.2132924951226087        9.2676735229803455        0.0000000000000000                1
   7.1238625043261985        9.2562937088776831        0.0000000000000000                1
   9.1096311828541552        9.3317492792368686        0.0000000000000000                1
   11.080199529816875        9.4603648002969045        0.0000000000000000                1
   13.008445212961906        9.5085995726078973        0.0000000000000000                1
   14.861080731784385        9.4709893510972432        0.0000000000000000                1
   16.561924286952980        9.5197635545298933        0.0000000000000000                1
   18.099063027836600        9.8926467830087610        0.0000000000000000                1
  -17.952356778529154        10.559880979914222        0.0000000000000000                1
  -16.698946080389206        10.735513672690086        0.0000000000000000                1
  -14.992422001686393        11.002445078735885        0.0000000000000000                1
  -13.018203622021968        11.581189729935616        0.0000000000000000                1
  -10.932428391117938        11.427935571292853        0.0000000000000000                1
  -8.9316707655530827        11.443907163229973        0.0000000000000000                1
  -6.8617529457771944        11.456651508277028        0.0000000000000000                1
  -4.7649700134350672        11.459930335863493        0.0000000000000000                1
  -2.6717183131359876        11.457710050962739        0.0000000000000000                1
 -0.65645964985138361        11.465497375732358        0.0000000000000000                1
   1.2672168961410561        11.409115125595582        0.0000000000000000                1
   3.1809790250390040        11.337081850734403        0.0000000000000000                1
   5.1275383608507745        11.367867045186362        0.0000000000000000                1
   7.0931765359329191        11.444825892734192        0.0000000000000000                1
   9.0539432947822558        11.513912512920264        0.0000000000000000                1
   10.944477268365882        11.561817740291914        0.0000000000000000                1
   12.863304210610229        11.766104792325446        0.0000000000000000                1
   14.728329627264063        11.185044775075859        0.0000000000000000                1
   16.327534526979040        10.993351759894288        0.0000000000000000                1
   17.525893912131863        10.938874931584436        0.0000000000000000                1
  -12.372682562531889        12.912821812241063        0.0000000000000000                1
  -11.118718149902344        13.477976561319380        0.0000000000000000                1
  -9.0475931202103617        13.445746647192141        0.0000000000000000                1
  -6.9604716107153779        13.500728678566144        0.0000000000000000                1
  -4.8135056775744776        13.517997631256328        0.0000000000000000                1
  -2.7122316419529464        13.483980816457018        0.0000000000000000                1
 -0.70415103047831051        13.395723956784874        0.0000000000000000                1
   1.2202657113960005        13.338911832560795        0.0000000000000000                1
   3.1132595610850564        13.373479822575609        0.0000000000000000                1
   5.0476635905852163        13.497041667828235        0.0000000000000000                1
   7.0636832206773850        13.626522739540697        0.0000000000000000                1
   9.0469063254510367        13.673079271737953        0.0000000000000000                1
   10.990176516966157        13.777839878859259        0.0000000000000000                1
   12.160842550381613        13.184625694763076        0.0000000000000000                1
  -10.783524097202353        14.876706991026154        0.0000000000000000                1
  -9.4608183893367208        15.565150518678637        0.0000000000000000                1
  -7.0094301130377419        15.533955295725681        0.0000000000000000                1
  -4.8407268652705522        15.564994327660548        0.0000000000000000                1
  -2.5679167394499993        15.700683754895341        0.0000000000000000                1
 -0.64616255676542078        15.132334032423538        0.0000000000000000                1
   1.2478207053875292        15.290925860349908        0.0000000000000000                1
   3.0352270120223737        15.138226977732675        0.0000000000000000                1
   4.8213206661118919        15.750787158953903        0.0000000000000000                1
   7.0253230474886905        15.803380691010496        0.0000000000000000                1
   9.3010334727697828        16.077568819531667        0.0000000000000000                1
   10.623178231615787        15.309947533039313        0.0000000000000000                1
  -8.9765524337334526        17.474584349245877        0.0000000000000000                1
  -6.9817448174452821        17.468651115945395        0.0000000000000000                1
  -4.7636120269065678        17.694373205821368        0.0000000000000000                1
  -3.0807353957811814        17.376115331829801        0.0000000000000000                1
   2.8041140666548601        17.480654660700225        0.0000000000000000                1
   5.1972765359885589        17.668570033339115        0.0000000000000000                1
   6.9210505046886279        17.857281381092793        0.0000000000000000                1
   8.7072246549745511        18.269964920210505        0.0000000000000000                1
  -8.7343149099701272        19.062997825811486        0.0000000000000000                1
  -7.0060934399657349        19.250493332340213        0.0000000000000000                1
  -5.2454986893253528        19.434316009377131        0.0000000000000000                1
  -2.7812410634497104        19.454592620805723        0.0000000000000000                1
   2.9202395979765110        19.468984364234707        0.0000000000000000                1
   4.6932605844531121        19.606474924369248        0.0000000000000000                1
   6.8984901890847024        19.761535148406420        0.0000000000000000                1
   8.4626842809585572        19.978825394153066        0.0000000000000000                1
  -8.7037025002866653        20.193115797727568        0.0000000000000000                1
  -7.4893543855217217        21.118953699005264        0.0000000000000000                1
  -4.7605311733110485        21.377210707514369        0.0000000000000000                1
  -3.0953276697920806        21.447789900998874        0.0000000000000000                1
 -0.93901281693394389        21.276549749889593        0.0000000000000000                1
   1.0468949075235852        21.266913863373571        0.0000000000000000                1
   3.0541043272262471        21.504963367493186        0.0000000000000000                1
   5.3287464018703536        21.649614198039348        0.0000000000000000                1
   7.4010626029170741        21.839208726598191        0.0000000000000000                1
   8.4862205750145456        21.123199388599474        0.0000000000000000                1
  -7.2351558851104700        23.176901282612867        0.0000000000000000                1
  -5.3077179551701255        23.349083749179481        0.0000000000000000                1
  -2.9433560548482074        23.476957960729155        0.0000000000000000                1
 -0.92604072275858551        23.752314089316258        0.0000000000000000                1
   1.0425860519544523        23.774968866846720        0.0000000000000000                1
   3.1966090949486907        23.553787252473356        0.0000000000000000                1
   4.8396144966770684        23.605705499397832        0.0000000000000000                1
   7.2373198451304859        23.858164835364786        0.0000000000000000                1
  -8.5545121979917980        26.161990995740208        0.0000000000000000                1
  -7.3720845943461546        25.357463326327363        0.0000000000000000                1
  -4.6712831517769153        25.409353926851583        0.0000000000000000                1
  -2.8615168016153096        25.494021041272351        0.0000000000000000                1
   2.8298464310577640        25.582418463956763        0.0000000000000000                1
   5.4143296918728119        25.553806034182131        0.0000000000000000                1
   7.3416557565418810        25.543970997191320        0.0000000000000000                1
  -10.274641777137337        27.855919499457183        0.0000000000000000                1
  -8.9422106813260740        27.544759714598488        0.0000000000000000                1
  -6.6940312588951452        27.864576687551779        0.0000000000000000                1
  -5.0720501454547593        27.285951157803382        0.0000000000000000                1
  -2.8859260745550528        27.339574197387186        0.0000000000000000                1
   3.0274899989282433        27.524129684649036        0.0000000000000000                1
   4.8787900318812119        27.493319475017280        0.0000000000000000                1
   7.8199689874684974        27.405278285102561        0.0000000000000000                1
   9.7580414130267030        28.037037450835808        0.0000000000000000                1
   10.951400759447633        28.127829447964370        0.0000000000000000                1
  -16.173527019733942        30.054864220322600        0.0000000000000000                1
  -14.923176645401950        29.964202171396995        0.0000000000000000                1
  -13.161650473879209        29.678042809433382        0.0000000000000000                1
  -11.061703335619866        29.177762679758082        0.0000000000000000                1
  -8.9344204184629898        29.690552064096750        0.0000000000000000                1
  -6.8527160493810886        30.189020323989872        0.0000000000000000                1
  -4.6046631077865570        29.641852627467323        0.0000000000000000                1
  -2.7805057378706044        29.520370249030485        0.0000000000000000                1
 -0.85644996465036971        29.537708729448724        0.0000000000000000                1
   1.1242723114632580        29.599306768820597        0.0000000000000000                1
   3.2566980922391275        29.473113074927266        0.0000000000000000                1
   5.3364093362277778        29.330469144266559        0.0000000000000000                1
   7.0966885863840075        29.784622970687934        0.0000000000000000                1
   9.3970231479274631        29.670620677110815        0.0000000000000000                1
   11.669907803553619        29.366315831264849        0.0000000000000000                1
   13.828536025375506        29.919690092892704        0.0000000000000000                1
   15.609410200874235        30.273523070289684        0.0000000000000000                1
   16.880225406354768        30.442177305647800        0.0000000000000000                1
  -18.455142161228018        31.954254177494061        0.0000000000000000                1
  -16.908574337682673        31.356883580479238        0.0000000000000000                1
  -14.845785402077242        31.639348501827456        0.0000000000000000                1
  -12.942175540389879        31.580885180466836        0.0000000000000000                1
  -10.994224965795318        31.527741047600742        0.0000000000000000                1
  -9.0645942120703840        31.672406358007361        0.0000000000000000                1
  -5.5894251114325568        31.478644946854033        0.0000000000000000                1
  -5.1529353664724340        31.371296221617357        0.0000000000000000                1
  -2.5287975550389539        31.171798303768092        0.0000000000000000                1
 -0.81948965377676963        31.408351125020300        0.0000000000000000                1
  0.97045406983738836        31.519221060560938        0.0000000000000000                1
   5.1379058322198965        31.639103004136707        0.0000000000000000                1
   7.3028736969895807        31.581053937590021        0.0000000000000000                1
   9.1988151886054919        31.555764984056967        0.0000000000000000                1
   11.313380706852767        31.577104337956996        0.0000000000000000                1
   13.352606340704950        31.733176806290995        0.0000000000000000                1
   15.289780149403354        31.916571439889914        0.0000000000000000                1
   17.442693766327885        31.885553741412014        0.0000000000000000                1
   18.918917253604398        32.769783402708285        0.0000000000000000                1
  -18.614715971655432        33.455511476246848        0.0000000000000000                1
  -16.758284276735793        33.476699334288682        0.0000000000000000                1
  -14.855885480836250        33.505322872248946        0.0000000000000000                1
  -12.738305975297838        33.693013153853620        0.0000000000000000                1
  -10.942765574384882        33.313759109190464        0.0000000000000000                1
  -9.0378248489778095        33.864528939691354        0.0000000000000000                1
  -7.2945988213056134        33.379805132786970        0.0000000000000000                1
   6.5694577842083506        33.457898993553911        0.0000000000000000                1
   8.9989758343506807        33.494835691253797        0.0000000000000000                1
   11.038127724532828        33.536099699349478        0.0000000000000000                1
   13.017863539764221        33.638178878779577        0.0000000000000000                1
   14.993693777719562        33.763505082370081        0.0000000000000000                1
   16.910254487777749        33.963475205504189        0.0000000000000000                1
   18.760021709060069        34.267434935116604        0.0000000000000000                1
  -18.591936063111273        35.421283869791580        0.0000000000000000                1
  -16.749439061090694        35.340136232681097        0.0000000000000000                1
  -14.874186288650717        35.380817546971521        0.0000000000000000                1
  -13.177205118383748        35.412642905275106        0.0000000000000000                1
  -10.980882489300985        35.495320321526385        0.0000000000000000                1
  -8.8892052397187040        35.475533667635489        0.0000000000000000                1
  -7.0583810749863671        35.548539143084440        0.0000000000000000                1
  -5.1236874059532473        35.311255054762491        0.0000000000000000                1
  -2.6064913876243985        35.581725985883054        0.0000000000000000                1
 -0.87632196386236394        35.504163091770138        0.0000000000000000                1
   1.0333081428193980        35.453008093476051        0.0000000000000000                1
   2.9589564061220766        35.777307526912224        0.0000000000000000                1
   5.1082131552258074        35.221645893731221        0.0000000000000000                1
   7.0986393227880837        35.171012774428469        0.0000000000000000                1
   8.8597660509048737        35.661024476121369        0.0000000000000000                1
   10.841607233628173        35.242051904453710        0.0000000000000000                1
   12.581914981261631        35.714642613476407        0.0000000000000000                1
   14.695351867179763        35.652504693475031        0.0000000000000000                1
   16.562323416273848        35.771505180226782        0.0000000000000000                1
   18.346674709000986        36.122336037163279        0.0000000000000000                1
  -18.369535607126977        36.883722435510613        0.0000000000000000                1
  -16.893523595789741        37.176117512796708        0.0000000000000000                1
  -14.848163650005009        37.287174507142659        0.0000000000000000                1
  -12.792098526443034        37.099181706985362        0.0000000000000000                1
  -11.389439472936418        37.481843654925889        0.0000000000000000                1
  -9.0651011921425670        37.474017124840906        0.0000000000000000                1
  -6.9740699725734556        37.533850432692674        0.0000000000000000                1
  -4.7552974414255642        37.456199429086752        0.0000000000000000                1
  -2.8963191116235070        37.541040629975512        0.0000000000000000                1
 -0.89482901321429653        37.454101836015255        0.0000000000000000                1
   1.0690530908193159        37.454864711943465        0.0000000000000000                1
   2.8835985266016060        37.527509736378370        0.0000000000000000                1
   4.8973159808080551        37.321206369569651        0.0000000000000000                1
   6.8408023555029276        37.241917396960169        0.0000000000000000                1
   8.6862863111658761        37.064878886384072        0.0000000000000000                1
   10.565044471037076        37.394137777719756        0.0000000000000000                1
   12.763925722666238        37.444884818359228        0.0000000000000000                1
   14.410172569869662        37.487530540401146        0.0000000000000000                1
   16.322657012710433        37.527142588628486        0.0000000000000000                1
   17.818424984646750        37.441189110207347        0.0000000000000000                1
  -6.9810963569893252        39.358118208504180        0.0000000000000000                1
  -4.9112637739525402        39.479432960536101        0.0000000000000000                1
   3.2230508275875356        39.301414687974365        0.0000000000000000                1
   4.9093149288016482        39.580841630123054        0.0000000000000000                1
   6.7622575151211581        39.298066533548401        0.0000000000000000                1
  -8.6334504190488222        41.493000180228258        0.0000000000000000                1
  -6.8644602305492084        41.459922315203443        0.0000000000000000                1
  -4.8852644307742965        41.489611866399862        0.0000000000000000                1
  -2.8224504901551222        41.664810070751223        0.0000000000000000                1
 -0.91494780442130996        41.344000241323876        0.0000000000000000                1
   1.0786312676283221        41.333037757127904        0.0000000000000000                1
   5.1794937191850359        41.488685684502094        0.0000000000000000                1
   7.0431528038164082        41.429695818371151        0.0000000000000000                1
   8.8771120527475080        41.854045839855551        0.0000000000000000                1
  -8.8040620314588161        43.428396710834562        0.0000000000000000                1
  -6.8632172448243276        43.445565400967183        0.0000000000000000                1
  -4.9194846526314269        43.433695345556380        0.0000000000000000                1
  -2.9736322705700777        43.597652874101456        0.0000000000000000                1
 -0.95273963378873938        43.562828333447804        0.0000000000000000                1
   1.0921692595589940        43.549122731903715        0.0000000000000000                1
   3.0749148096693157        43.541124278875735        0.0000000000000000                1
   4.9831569559883713        43.431627434595654        0.0000000000000000                1
   7.0185399391311165        43.687421156937141        0.0000000000000000                1
   8.8850423836371846        43.485237021428588        0.0000000000000000                1
  -8.8300421158569797        45.515325781237856        0.0000000000000000                1
  -6.8856023836368632        45.473049827372968        0.0000000000000000                1
  -4.8696010761870925        45.554912370208243        0.0000000000000000                1
  -1.1222646783879424        45.696553405327855        0.0000000000000000                1
   1.2049895663700807        45.677542478800767        0.0000000000000000                1
   5.1048648649658128        45.635061345748909        0.0000000000000000                1
   7.0328018926279166        45.508594596814895        0.0000000000000000                1
   8.7328940310038625        45.503566983765303        0.0000000000000000                1
  -8.6643112985823691        47.467070960005749        0.0000000000000000                1
  -6.9477372091447505        47.487276118995013        0.0000000000000000                1
  -5.1742622161435259        47.441159141672166        0.0000000000000000                1
 -0.86750045373015006        47.372640894610313        0.0000000000000000                1
  0.92990001126511956        47.435845132505953        0.0000000000000000                1
   5.2706816150210409        47.351789169472141        0.0000000000000000                1
   7.1263349118692592        47.296451691760318        0.0000000000000000                1
   8.9080730743131706        47.106704533535734        0.0000000000000000                1
  -7.1192082384060136        49.634410989280489        0.0000000000000000                1
  -4.9762094010207978        49.451220330211164        0.0000000000000000                1
  -2.9599147928693075        49.403465275654128        0.0000000000000000                1
 -0.93415102560743934        49.378404063927348        0.0000000000000000                1
   1.0777047989936515        49.568834401748177        0.0000000000000000                1
   3.0674922709665866        49.409321498067811        0.0000000000000000                1
   5.1239047270483660        49.446167608109647        0.0000000000000000                1
   7.2658501690870585        49.573047069566549        0.0000000000000000                1
  -6.5757716416107650        51.129576839246923        0.0000000000000000                1
  -5.0839427054233486        51.655931619129341        0.0000000000000000                1
  -2.8959092502587467        51.413544390813868        0.0000000000000000                1
 -0.70305377547328785        51.346466511410199        0.0000000000000000                1
   1.0779991610181849        51.317985028109653        0.0000000000000000                1
   2.8563795974248967        51.387026804785563        0.0000000000000000                1
   5.1837999430719357        51.658566034616378        0.0000000000000000                1
  -2.8466122941037444        53.164093411671338        0.0000000000000000                1
 -0.89205935675515213        53.193651783264812        0.0000000000000000                1
   1.0797336088508667        53.012728455600893        0.0000000000000000                1
   2.9990796843632697        53.114619233568206        0.0000000000000000                1
   2.0202248785159358        16.487348798851233        0.0000000000000000                1
   2.9693659432202906        16.430979735759596        0.0000000000000000                1
   2.2222392829651212        17.114265037746666        0.0000000000000000                1
   3.8354595419722526        16.633005485989912        0.0000000000000000                1
   3.9060091416560341        17.547550369220225        0.0000000000000000                1
  -3.8283621520037583        18.619510068142947        0.0000000000000000                1
  -3.0221666381555869        18.468814448440316        0.0000000000000000                1
  -3.9046954654418045        19.476717103138743        0.0000000000000000                1
  -2.1659764640297774        19.801444317741897        0.0000000000000000                1
   3.0034783625097830        18.457546757245083        0.0000000000000000                1
   2.2442427469528008        19.782896051038914        0.0000000000000000                1
   3.8038810381842221        18.416947408594744        0.0000000000000000                1
  -3.8218782273697505        20.333517638834429        0.0000000000000000                1
  -3.0065033736102857        20.456520339683678        0.0000000000000000                1
  -1.9519627083887965        20.438511459433130        0.0000000000000000                1
  -1.2815938900749684        20.649347084865443        0.0000000000000000                1
  -2.0106480232002082        21.451011362581671        0.0000000000000000                1
   1.3792192758643063        20.621510836375744        0.0000000000000000                1