 VARIABLES = "X", "Y", "Z", "Material ID"
 ZONE F=FEPOINT, ET=QUADRILATERAL, N=        1067 E=         903
  -18.057999876860290        4.3066849309861874        0.0000000000000000                1
  -16.807007824589252        4.0405736692807732        0.0000000000000000                1
  -14.946990573905641        3.7736178772300071        0.0000000000000000                1
  -12.862596722850997        3.6959687615356387        0.0000000000000000                1
  -10.878488340416197        3.8087962295326472        0.0000000000000000                1
  -9.5203495952955954        3.9140735599890744        0.0000000000000000                1
   10.352983752257712        3.5616199028870281        0.0000000000000000                1
   11.784870638954567        3.5779440640280242        0.0000000000000000                1
   13.785879864510511        3.6456842333768700        0.0000000000000000                1
   15.770107682849691        3.8590305264611446        0.0000000000000000                1
   17.217272175761934        4.0643977118948396        0.0000000000000000                1
  -18.329899867185382        5.5615899270631264        0.0000000000000000                1
  -16.633011514363645        5.6970343817107683        0.0000000000000000                1
  -14.817658513297292        5.6445243825669174        0.0000000000000000                1
  -12.877547440920665        5.6007548939957719        0.0000000000000000                1
  -10.912342016812724        5.5434304882941259        0.0000000000000000                1
  -8.7694476349804500        5.1994586809803831        0.0000000000000000                1
  -7.2284027192298996        5.5659874157380154        0.0000000000000000                1
   7.8348079635212304        5.1944670988789285        0.0000000000000000                1
   9.4159600711789793        4.8864248536188066        0.0000000000000000                1
   11.520986827760762        5.3923847552590916        0.0000000000000000                1
   13.472821520496520        5.5717685395504812        0.0000000000000000                1
   15.435758018112359        5.7046153332513061        0.0000000000000000                1
   17.691976836406432        5.7232745035526733        0.0000000000000000                1
   19.063157040871207        6.7926282412891892        0.0000000000000000                1
  -18.483846747321717        7.4410717126538941        0.0000000000000000                1
  -16.624002891786589        7.4523148532403676        0.0000000000000000                1
  -14.791867520837364        7.4722706029508608        0.0000000000000000                1
  -12.876046850598293        7.4837584865797044        0.0000000000000000                1
  -10.877248328720501        7.4379432664354139        0.0000000000000000                1
  -8.8271495050317537        7.3424578821334396        0.0000000000000000                1
  -6.5414753216399619        7.0433338940134957        0.0000000000000000                1
  -4.5520269702431175        7.7213655188489296        0.0000000000000000                1
  -3.3036963027084338        8.0034360619398619        0.0000000000000000                1
   4.0175168263323799        7.5982092402407506        0.0000000000000000                1
   5.1603216564438226        7.3718058664526502        0.0000000000000000                1
   7.0756660120982611        6.7409786408084633        0.0000000000000000                1
   9.2592664855451758        7.1692522597414703        0.0000000000000000                1
   11.249921503357957        7.3659516534249017        0.0000000000000000                1
   13.211541412364467        7.5074901642515828        0.0000000000000000                1
   15.140194213877546        7.6032363676356258        0.0000000000000000                1
   16.974232047905161        7.8257261452386961        0.0000000000000000                1
   18.695883981507734        8.2409038796907126        0.0000000000000000                1
  -18.293807885237893        9.3227897138104527        0.0000000000000000                1
  -16.607166106011118        9.1796501468625316        0.0000000000000000                1
  -14.831959172106643        9.2898147046519828        0.0000000000000000                1
  -12.914334761840321        9.4171836531981068        0.0000000000000000                1
  -10.905896948392199        9.4389576895203984        0.0000000000000000                1
  -8.8441407634603291        9.3886445876332267        0.0000000000000000                1
  -6.7576740152256800        9.3943362099138366        0.0000000000000000                1
  -4.7191136745769562        9.4758050018131392        0.0000000000000000                1
  -2.5002787495245014        9.2905446323245311        0.0000000000000000                1
 -0.41418709525923963        9.6729250800189188        0.0000000000000000                1
   1.3141663199577018        9.5581122005569057        0.0000000000000000                1
   3.2384415584125521        9.0091666265464774        0.0000000000000000                1
   5.2132924951226087        9.2676735229803455        0.0000000000000000                1
   7.1238625043261985        9.2562937088776831        0.0000000000000000                1
   9.1096311828541552        9.3317492792368686        0.0000000000000000                1
   11.080199529816875        9.4603648002969045        0.0000000000000000                1
   13.008445212961906        9.5085995726078973        0.0000000000000000                1
   14.861080731784385        9.4709893510972432        0.0000000000000000                1
   16.561924286952980        9.5197635545298933        0.0000000000000000                1
   18.099063027836600        9.8926467830087610        0.0000000000000000                1
  -17.952356778529154        10.559880979914222        0.0000000000000000                1
  -16.698946080389206        10.735513672690086        0.0000000000000000                1
  -14.992422001686393        11.002445078735885        0.0000000000000000                1
  -13.018203622021968        11.581189729935616        0.0000000000000000                1
  -10.932428391117938        11.427935571292853        0.0000000000000000                1
  -8.9316707655530863        11.443907163229971        0.0000000000000000                1
  -6.8617529457771989        11.456651508277023        0.0000000000000000                1
  -4.7649700134350699        11.459930335863492        0.0000000000000000                1
  -2.6717183131359898        11.457710050962737        0.0000000000000000                1
 -0.65645964985138416        11.465497375732356        0.0000000000000000                1
   1.2672168961410559        11.409115125595582        0.0000000000000000                1
   3.1809790250390040        11.337081850734403        0.0000000000000000                1
   5.1275383608507736        11.367867045186363        0.0000000000000000                1
   7.0931765359329182        11.444825892734194        0.0000000000000000                1
   9.0539432947822558        11.513912512920264        0.0000000000000000                1
   10.944477268365882        11.561817740291914        0.0000000000000000                1
   12.863304210610229        11.766104792325446        0.0000000000000000                1
   14.728329627264063        11.185044775075859        0.0000000000000000                1
   16.327534526979040        10.993351759894288        0.0000000000000000                1
   17.525893912131863        10.938874931584436        0.0000000000000000                1
  -12.372682562531889        12.912821812241063        0.0000000000000000                1
  -11.118718149902357        13.477976561319373        0.0000000000000000                1
  -9.0475931202104061        13.445746647192111        0.0000000000000000                1
  -6.9604716107154534        13.500728678566102        0.0000000000000000                1
  -4.8135056775745424        13.517997631256288        0.0000000000000000                1
  -2.7122316419529788        13.483980816456999        0.0000000000000000                1
 -0.70415103047831773        13.395723956784868        0.0000000000000000                1
   1.2202657113960000        13.338911832560795        0.0000000000000000                1
   3.1132595610850546        13.373479822575611        0.0000000000000000                1
   5.0476635905852110        13.497041667828242        0.0000000000000000                1
   7.0636832206773796        13.626522739540707        0.0000000000000000                1
   9.0469063254510349        13.673079271737960        0.0000000000000000                1
   10.990176516966157        13.777839878859261        0.0000000000000000                1
   12.160842550381613        13.184625694763076        0.0000000000000000                1
  -10.783524097202376        14.876706991026138        0.0000000000000000                1
  -9.4608183893375735        15.565150518678125        0.0000000000000000                1
  -7.0094301130392376        15.533955295724780        0.0000000000000000                1
  -4.8407268652718249        15.564994327659782        0.0000000000000000                1
  -2.5679167394504443        15.700683754895074        0.0000000000000000                1
 -0.64616255676543355        15.132334032423529        0.0000000000000000                1
   1.2478207053875288        15.290925860349910        0.0000000000000000                1
   3.0352270120223710        15.138226977732680        0.0000000000000000                1
   4.8213206661119212        15.750787158953901        0.0000000000000000                1
   7.0253230474887172        15.803380691010497        0.0000000000000000                1
   9.3010334727697970        16.077568819531670        0.0000000000000000                1
   10.623178231615785        15.309947533039317        0.0000000000000000                1
  -8.9765524337460665        17.474584349238363        0.0000000000000000                1
  -6.9817448174690826        17.468651115931237        0.0000000000000000                1
  -4.7636120269291924        17.694373205807917        0.0000000000000000                1
  -3.0807353957823489        17.376115331829102        0.0000000000000000                1
   2.8041140666548769        17.480654660700221        0.0000000000000000                1
   5.1972765359904649        17.668570033337719        0.0000000000000000                1
   6.9210505046906921        17.857281381091283        0.0000000000000000                1
   8.7072246549755761        18.269964920209766        0.0000000000000000                1
  -8.7343149100924578        19.062997825739558        0.0000000000000000                1
  -7.0060934402824122        19.250493332154349        0.0000000000000000                1
  -5.2454986896382261        19.434316009193552        0.0000000000000000                1
  -2.7812410634641984        19.454592620797111        0.0000000000000000                1
   2.9202395979782674        19.468984364233425        0.0000000000000000                1
   4.6932605845048938        19.606474924326051        0.0000000000000000                1
   6.8984901891342894        19.761535148365198        0.0000000000000000                1
   8.4626842809762568        19.978825394138457        0.0000000000000000                1
  -8.7037025005099391        20.193115797596434        0.0000000000000000                1
  -7.4893543893483452        21.118953696788562        0.0000000000000000                1
  -4.7605311770084651        21.377210705373869        0.0000000000000000                1
  -3.0953276700739099        21.447789900833499        0.0000000000000000                1
 -0.93901281693774064        21.276549749887330        0.0000000000000000                1
   1.0468949075240024        21.266913863373240        0.0000000000000000                1
   3.0541043272610038        21.504963367464686        0.0000000000000000                1
   5.3287464027990437        21.649614197230356        0.0000000000000000                1
   7.4010626038042941        21.839208725822552        0.0000000000000000                1
   8.4862205750481223        21.123199388571589        0.0000000000000000                1
  -7.2351559306166431        23.176901256494318        0.0000000000000000                1
  -5.3077179914751067        23.349083728362295        0.0000000000000000                1
  -2.9433560566779575        23.476957959670550        0.0000000000000000                1
 -0.92604072280735339        23.752314089287697        0.0000000000000000                1
   1.0425860519598285        23.774968866842435        0.0000000000000000                1
   3.1966090957578408        23.553787251772455        0.0000000000000000                1
   4.8396145091425842        23.605705488231322        0.0000000000000000                1
   7.2373198588597303        23.858164823048714        0.0000000000000000                1
  -8.5545127610096987        26.161990671048926        0.0000000000000000                1
  -7.3720850831539400        25.357463046799960        0.0000000000000000                1
  -4.6712833474046134        25.409353815732327        0.0000000000000000                1
  -2.8615168172905712        25.494021032319921        0.0000000000000000                1
   2.8298464365755542        25.582418459086394        0.0000000000000000                1
   5.4143298265300963        25.553805911473795        0.0000000000000000                1
   7.3416559257400422        25.543970842148447        0.0000000000000000                1
  -10.274644170572211        27.855918063399404        0.0000000000000000                1
  -8.9422142789214831        27.544757614982306        0.0000000000000000                1
  -6.6940348546091970        27.864574636991811        0.0000000000000000                1
  -5.0720506294699472        27.285950884244581        0.0000000000000000                1
  -2.8859260841700873        27.339574191900834        0.0000000000000000                1
   3.0274900584809443        27.524129630976741        0.0000000000000000                1
   4.8787908430069473        27.493318729345674        0.0000000000000000                1
   7.8199709878900876        27.405276415939149        0.0000000000000000                1
   9.7580438166283070        28.037035156663709        0.0000000000000000                1
   10.951402274112731        28.127827964028160        0.0000000000000000                1
  -16.173527152392364        30.054864131745038        0.0000000000000000                1
  -14.923177357606237        29.964201705809877        0.0000000000000000                1
  -13.161653598188533        29.678040801750303        0.0000000000000000                1
  -11.061712120304966        29.177757210567147        0.0000000000000000                1
  -8.9344399522909796        29.690540375032896        0.0000000000000000                1
  -6.8527386775338703        30.189007288935244        0.0000000000000000                1
  -4.6046637942094844        29.641852248700502        0.0000000000000000                1
  -2.7805057500976673        29.520370242172955        0.0000000000000000                1
 -0.85644996465617640        29.537708729445352        0.0000000000000000                1
   1.1242723114837996        29.599306768805210        0.0000000000000000                1
   3.2566981374239248        29.473113035580592        0.0000000000000000                1
   5.3364116079817849        29.330467074888254        0.0000000000000000                1
   7.0967047354864530        29.784607837226847        0.0000000000000000                1
   9.3970390716318466        29.670605209728151        0.0000000000000000                1
   11.669915844579375        29.366307616736997        0.0000000000000000                1
   13.828539085298825        29.919686762290564        0.0000000000000000                1
   15.609410954714697        30.273522203467742        0.0000000000000000                1
   16.880225545407583        30.442177138654056        0.0000000000000000                1
  -18.455142184329560        31.954254161665414        0.0000000000000000                1
  -16.908574528455230        31.356883452903702        0.0000000000000000                1
  -14.845786753744335        31.639347610514637        0.0000000000000000                1
  -12.942182590160261        31.580880564445042        0.0000000000000000                1
  -10.994254589704537        31.527721542256408        0.0000000000000000                1
  -9.0646668892837265        31.672360225194293        0.0000000000000000                1
  -5.5894437910580423        31.478634525379260        0.0000000000000000                1
  -5.1529353664724340        31.371296221617357        0.0000000000000000                1
  -2.5287975554721620        31.171798303523754        0.0000000000000000                1
 -0.81948965377887917        31.408351125019077        0.0000000000000000                1
  0.97045406983743110        31.519221060560930        0.0000000000000000                1
   5.1379157776057136        31.639094079920934        0.0000000000000000                1
   7.3029718806989257        31.580961412343200        0.0000000000000000                1
   9.1988998477418225        31.555680865204643        0.0000000000000000                1
   11.313418159346561        31.577064086029392        0.0000000000000000                1
   13.352616975504926        31.733164639465755        0.0000000000000000                1
   15.289782229015865        31.916568974645521        0.0000000000000000                1
   17.442694053597570        31.885553390668928        0.0000000000000000                1
   18.918917286715214        32.769783360617943        0.0000000000000000                1
  -18.614715998335772        33.455511457915279        0.0000000000000000                1
  -16.758284485274629        33.476699193708036        0.0000000000000000                1
  -14.855886835689832        33.505321970300933        0.0000000000000000                1
  -12.738314465677625        33.693007484366404        0.0000000000000000                1
  -10.942808622534280        33.313729894538923        0.0000000000000000                1
  -9.0380481112878961        33.864368258069533        0.0000000000000000                1
  -7.2949573535560095        33.379573403809914        0.0000000000000000                1
   6.5700325713657293        33.457365327641419        0.0000000000000000                1
   8.9993101841412955        33.494481405567768        0.0000000000000000                1
   11.038236826010706        33.535973052628208        0.0000000000000000                1
   13.017885465128780        33.638152793873630        0.0000000000000000                1
   14.993697328263627        33.763500765981966        0.0000000000000000                1
   16.910254951402855        33.963474629022379        0.0000000000000000                1
   18.760021758697636        34.267434871558372        0.0000000000000000                1
  -18.591936081802395        35.421283856850664        0.0000000000000000                1
  -16.749439191524807        35.340136143735769        0.0000000000000000                1
  -14.874186992344034        35.380817070230009        0.0000000000000000                1
  -13.177206954458201        35.412641648414812        0.0000000000000000                1
  -10.980898405494907        35.495308773094990        0.0000000000000000                1
  -8.8894453134928266        35.475338078541959        0.0000000000000000                1
  -7.0605845876693190        35.546456777782488        0.0000000000000000                1
  -5.1263061517533970        35.309977351444317        0.0000000000000000                1
  -2.6112969418957652        35.573829529051103        0.0000000000000000                1
 -0.88387094145965039        35.495835612689135        0.0000000000000000                1
   1.0391627553892988        35.450091758980570        0.0000000000000000                1
   2.9782076374147306        35.777245257852385        0.0000000000000000                1
   5.1120870183807687        35.218758062553427        0.0000000000000000                1
   7.1009862784713187        35.168656808588764        0.0000000000000000                1
   8.8606906710786912        35.659895970059154        0.0000000000000000                1
   10.841757990575275        35.241868945467793        0.0000000000000000                1
   12.581940065708146        35.714611835904641        0.0000000000000000                1
   14.695355269593403        35.652500484138777        0.0000000000000000                1
   16.562323857674421        35.771504624274158        0.0000000000000000                1
   18.346674756856778        36.122335975266516        0.0000000000000000                1
  -18.369535615962867        36.883722429323171        0.0000000000000000                1
  -16.893523644332387        37.176117479037927        0.0000000000000000                1
  -14.848163853415098        37.287174362819719        0.0000000000000000                1
  -12.792099558339610        37.099180943113303        0.0000000000000000                1
  -11.389442276832135        37.481841442868998        0.0000000000000000                1
  -9.0651216416909524        37.473996396829932        0.0000000000000000                1
  -6.9799532163315767        37.523530510983932        0.0000000000000000                1
  -4.8121722886829907        37.396122197861757        0.0000000000000000                1
  -2.8394502356914213        37.396208094988538        0.0000000000000000                1
 -0.82945656254922273        37.507074099979356        0.0000000000000000                1
  0.96985259621040887        37.538789704783582        0.0000000000000000                1
   3.0128895905141149        37.481334614131114        0.0000000000000000                1
   4.9428527763998504        37.281461318069809        0.0000000000000000                1
   6.8498740886324976        37.229044349058242        0.0000000000000000                1
   8.6868820370840325        37.064013687576988        0.0000000000000000                1
   10.565077288842803        37.394093877134999        0.0000000000000000                1
   12.763929585719588        37.444879913149670        0.0000000000000000                1
   14.410174097492069        37.487528622489712        0.0000000000000000                1
   16.322657254620982        37.527142280844132        0.0000000000000000                1
   17.818425014585081        37.441189071088814        0.0000000000000000                1
  -6.9768196744378050        39.365088633647069        0.0000000000000000                1
  -4.7002035555961506        39.664407282257599        0.0000000000000000                1
   3.4094862830375403        39.165086476445467        0.0000000000000000                1
   5.0148834671533375        39.390356418122842        0.0000000000000000                1
   6.7704837812948995        39.265601829415360        0.0000000000000000                1
  -8.6367092484934425        41.498074401406583        0.0000000000000000                1
  -6.8912301112516383        41.494436410413876        0.0000000000000000                1
  -5.0928716409027723        41.494351699017002        0.0000000000000000                1
  -2.6553622044467295        41.839345983788277        0.0000000000000000                1
 -0.92434894739948970        41.607530561403124        0.0000000000000000                1
   1.0425631550400565        41.551734743353308        0.0000000000000000                1
   5.0757575269158819        41.618117757124317        0.0000000000000000                1
   7.0274940569541213        41.438782101866039        0.0000000000000000                1
   8.8768433649282876        41.856371084578591        0.0000000000000000                1
  -8.8073644276196799        43.432756310062814        0.0000000000000000                1
  -6.8887820519017007        43.471663782519990        0.0000000000000000                1
  -4.9440416290672831        43.433789468326715        0.0000000000000000                1
  -2.9519942214390347        43.606851134216910        0.0000000000000000                1
 -0.93524988513373986        43.607183427632798        0.0000000000000000                1
   1.1086459142581262        43.549421262022989        0.0000000000000000                1
   3.0906241917939314        43.534027387625329        0.0000000000000000                1
   5.0011432237030675        43.427149833453356        0.0000000000000000                1
   7.0336744893198704        43.711595454584291        0.0000000000000000                1
   8.8864418931207414        43.488974074210908        0.0000000000000000                1
  -8.8311359529421978        45.516571978051587        0.0000000000000000                1
  -6.8897479656416358        45.476796045451394        0.0000000000000000                1
  -4.8718492531201028        45.556107625395072        0.0000000000000000                1
  -1.1190531883601242        45.700267381982179        0.0000000000000000                1
   1.2081700142478691        45.677314620893796        0.0000000000000000                1
   5.1085067588279411        45.636293810260646        0.0000000000000000                1
   7.0381495797927789        45.513799572705260        0.0000000000000000                1
   8.7345289786654980        45.505364097943435        0.0000000000000000                1
  -8.6644458890293183        47.467211232727578        0.0000000000000000                1
  -6.9480976866845436        47.487605824008888        0.0000000000000000                1
  -5.1744704370712054        47.441320287562824        0.0000000000000000                1
 -0.86722656337696347        47.372697947491318        0.0000000000000000                1
  0.93018136325936018        47.435816662849533        0.0000000000000000                1
   5.2711983098792299        47.352130204949297        0.0000000000000000                1
   7.1277772903257350        47.297681660278869        0.0000000000000000                1
   8.9085295917926235        47.107085324367276        0.0000000000000000                1
  -7.1192233966830196        49.634424848762031        0.0000000000000000                1
  -4.9762193357561317        49.451228794487676        0.0000000000000000                1
  -2.9599144994917745        49.403465262241554        0.0000000000000000                1
 -0.93413552148630818        49.378399333353315        0.0000000000000000                1
   1.0777206564208441        49.568828296635914        0.0000000000000000                1
   3.0674952953660246        49.409322712576170        0.0000000000000000                1
   5.1239660733874492        49.446210525557241        0.0000000000000000                1
   7.2659533689453486        49.573123938473131        0.0000000000000000                1
  -6.5757719265748777        51.129577090386292        0.0000000000000000                1
  -5.0839429554189666        51.655931835261754        0.0000000000000000                1
  -2.8959091760092512        51.413544360487741        0.0000000000000000                1
 -0.70305299951895628        51.346466065116111        0.0000000000000000                1
   1.0780016826986754        51.317983926253767        0.0000000000000000                1
   2.8563806060540475        51.387027026476325        0.0000000000000000                1
   5.1838029423255811        51.658568062745942        0.0000000000000000                1
  -2.8466122906465228        53.164093409188126        0.0000000000000000                1
 -0.89205931993184306        53.193651758198328        0.0000000000000000                1
   1.0797338616113363        53.012728313813007        0.0000000000000000                1
   2.9990797394138307        53.114619226786836        0.0000000000000000                1
   2.0202248785159354        16.487348798851233        0.0000000000000000                1
   2.9693659432202906        16.430979735759607        0.0000000000000000                1
   2.2222392829651207        17.114265037746666        0.0000000000000000                1
   3.8354595419722632        16.633005485989919        0.0000000000000000                1
   3.9060091416567038        17.547550369219746        0.0000000000000000                1
  -3.8283621520171791        18.619510068134947        0.0000000000000000                1
  -3.0221666381594456        18.468814448438010        0.0000000000000000                1
  -3.9046954655630839        19.476717103067454        0.0000000000000000                1
  -2.1659764640333004        19.801444317739797        0.0000000000000000                1
   3.0034783625104526        18.457546757244600        0.0000000000000000                1
   2.2442427469528914        19.782896051038875        0.0000000000000000                1
   3.8038810381855477        18.416947408593781        0.0000000000000000                1
  -3.8218782275960699        20.333517638701519        0.0000000000000000                1
  -3.0065033737301987        20.456520339613210        0.0000000000000000                1
  -1.9519627084005597        20.438511459426135        0.0000000000000000                1
  -1.2815938900761128        20.649347084864758        0.0000000000000000                1
  -2.0106480232328958        21.451011362562316        0.0000000000000000                1
   1.3792192758643775        20.621510836375709        0.0000000000000000                1