 VARIABLES = "X", "Y", "Z"
 ZONE F=FEPOINT, ET=QUADRILATERAL, N=        1186 E=        1010
  -18.054253387333823        4.3035508243548906        0.0000000000000000     
  -16.802980492658513        4.0382984534888378        0.0000000000000000     
  -14.942975682510507        3.7725666889850622        0.0000000000000000     
  -12.858917235888283        3.6959237885365774        0.0000000000000000     
  -10.875861395265961        3.8091849391076091        0.0000000000000000     
  -9.5195094914942473        3.9140174443006712        0.0000000000000000     
   10.352265249450998        3.5622308967885803        0.0000000000000000     
   11.784786516106919        3.5783624921143011        0.0000000000000000     
   13.787128138772800        3.6464607192985277        0.0000000000000000     
   15.773288002875020        3.8607002189461808        0.0000000000000000     
   17.221212505148912        4.0668688850588532        0.0000000000000000     
  -18.327384769726574        5.5584734463897858        0.0000000000000000     
  -16.630508586610908        5.6952623912770690        0.0000000000000000     
  -14.815327626125555        5.6436374661799498        0.0000000000000000     
  -12.875671886392812        5.6004074928619145        0.0000000000000000     
  -10.911396873519292        5.5431347236197768        0.0000000000000000     
  -8.7705684898697154        5.1982999736702817        0.0000000000000000     
  -7.2309177638653956        5.5640977372723741        0.0000000000000000     
   7.8328469990833645        5.1958435404844892        0.0000000000000000     
   9.4145553198061549        4.8875236026524611        0.0000000000000000     
   11.520912817469055        5.3929405387028666        0.0000000000000000     
   13.473693008307553        5.5724140342724198        0.0000000000000000     
   15.437465895009817        5.7056943758116940        0.0000000000000000     
   17.694149030380007        5.7251480850692120        0.0000000000000000     
   19.064355723783940        6.7942324848599585        0.0000000000000000     
  -18.482300787385217        7.4387221228131573        0.0000000000000000     
  -16.622379561765928        7.4511233525595157        0.0000000000000000     
  -14.790559043327079        7.4716454209317931        0.0000000000000000     
  -12.875191088868741        7.4834031538014862        0.0000000000000000     
  -10.877008743329958        7.4375711066628938        0.0000000000000000     
  -8.8276003110232253        7.3418709308109174        0.0000000000000000     
  -6.5421163551374057        7.0427642946113522        0.0000000000000000     
  -4.5517686271322733        7.7214432846327714        0.0000000000000000     
  -3.3038864101298726        8.0030782653048824        0.0000000000000000     
   4.0162890439639787        7.5990982866906762        0.0000000000000000     
   5.1597835840207011        7.3721943520391813        0.0000000000000000     
   7.0750606516325227        6.7414175412120425        0.0000000000000000     
   9.2587536471760323        7.1697247581367805        0.0000000000000000     
   11.249963395768766        7.3662614688935593        0.0000000000000000     
   13.212164889443168        7.5077734344631422        0.0000000000000000     
   15.141204888982402        7.6036986415493040        0.0000000000000000     
   16.975304999172561        7.8263455825515482        0.0000000000000000     
   18.696749290208082        8.2413591401105677        0.0000000000000000     
  -18.291976491381341        9.3223544818250641        0.0000000000000000     
  -16.605729462950727        9.1792376628148382        0.0000000000000000     
  -14.831159337031625        9.2894859822040488        0.0000000000000000     
  -12.914031111345219        9.4169301474987694        0.0000000000000000     
  -10.905871771199475        9.4387181490629075        0.0000000000000000     
  -8.8443066713502674        9.3883610976456673        0.0000000000000000     
  -6.7578598976978901        9.3940902780505464        0.0000000000000000     
  -4.7191918784394060        9.4756399120497363        0.0000000000000000     
  -2.5003307830931187        9.2903430387316419        0.0000000000000000     
 -0.41410825450737238        9.6730235125147317        0.0000000000000000     
   1.3139238386778798        9.5582696421122950        0.0000000000000000     
   3.2377485805613633        9.0096690997454303        0.0000000000000000     
   5.2128348001193086        9.2680006735973919        0.0000000000000000     
   7.1235693160558604        9.2565082253754287        0.0000000000000000     
   9.1095596478984575        9.3318474317675957        0.0000000000000000     
   11.080542465443749        9.4602774487216497        0.0000000000000000     
   13.009218766322043        9.5083857930157158        0.0000000000000000     
   14.861963036911654        9.4708551776537231        0.0000000000000000     
   16.562603110024199        9.5197393435270037        0.0000000000000000     
   18.099535702613608        9.8923562719423490        0.0000000000000000     
  -17.949583930462826        10.560801857670597        0.0000000000000000     
  -16.696898026969574        10.735903128418594        0.0000000000000000     
  -14.992163176957623        11.002118571537876        0.0000000000000000     
  -13.018507329885109        11.581045706636139        0.0000000000000000     
  -10.932416579706265        11.427818300408624        0.0000000000000000     
  -8.9317320361373191        11.443698673439881        0.0000000000000000     
  -6.8618457713805547        11.456457628224561        0.0000000000000000     
  -4.7650353379818648        11.459792414246117        0.0000000000000000     
  -2.6717512158412151        11.457642436141155        0.0000000000000000     
 -0.65650825801791701        11.465520050894030        0.0000000000000000     
   1.2670630508980745        11.409232144438421        0.0000000000000000     
   3.1807253540880032        11.337260166271527        0.0000000000000000     
   5.1273075564695958        11.368024351148483        0.0000000000000000     
   7.0930694459785855        11.444885385401077        0.0000000000000000     
   9.0540665778497722        11.513794591594019        0.0000000000000000     
   10.945060442807989        11.561396683766681        0.0000000000000000     
   12.864915696736404        11.765057423779261        0.0000000000000000     
   14.729709308164468        11.184315524339967        0.0000000000000000     
   16.327919210139207        10.993136965430239        0.0000000000000000     
   17.525882626532560        10.938655562290766        0.0000000000000000     
  -12.372095328476647        12.913573579101980        0.0000000000000000     
  -11.118512528197956        13.477762783273068        0.0000000000000000     
  -9.0476754847181020        13.445384941904868        0.0000000000000000     
  -6.9605718479307477        13.500461644460598        0.0000000000000000     
  -4.8135738419131480        13.517851298569260        0.0000000000000000     
  -2.7122713119094306        13.483928729714220        0.0000000000000000     
 -0.70419269239906568        13.395729451377917        0.0000000000000000     
   1.2201902714149704        13.338952971639559        0.0000000000000000     
   3.1131544291167614        13.373539739911893        0.0000000000000000     
   5.0475673170593787        13.497090089846829        0.0000000000000000     
   7.0636448861955961        13.626519392506887        0.0000000000000000     
   9.0470321106181011        13.672894468271339        0.0000000000000000     
   10.990673255741626        13.777226645100932        0.0000000000000000     
   12.162148555904052        13.183614959010265        0.0000000000000000     
  -10.783884328716461        14.875612103535511        0.0000000000000000     
  -9.4610756761539765        15.564435359714953        0.0000000000000000     
  -7.0096158788586687        15.533512003259855        0.0000000000000000     
  -4.8408229992796503        15.564807159767827        0.0000000000000000     
  -2.5679647279921483        15.700656965265864        0.0000000000000000     
 -0.64616938964057358        15.132339210796966        0.0000000000000000     
   1.2477821328705638        15.290903249719154        0.0000000000000000     
   3.0351771425319520        15.138231527015716        0.0000000000000000     
   4.8212839872440405        15.750762658077667        0.0000000000000000     
   7.0252760373950274        15.803357653801745        0.0000000000000000     
   9.3009260483190186        16.077671838820560        0.0000000000000000     
   10.623385640949756        15.309296620781039        0.0000000000000000     
  -8.9771874290250153        17.473169093273260        0.0000000000000000     
  -6.9820321585537766        17.468053691180099        0.0000000000000000     
  -4.7637159542878225        17.694211568609159        0.0000000000000000     
  -3.0807843756160227        17.376099061706135        0.0000000000000000     
   2.8041206087838200        17.480713295931302        0.0000000000000000     
   5.1972794737176891        17.668428016838458        0.0000000000000000     
   6.9210328814994551        17.857057535089556        0.0000000000000000     
   8.7070276921282037        18.270116577555036        0.0000000000000000     
  -8.7350674462939875        19.061393116169686        0.0000000000000000     
  -7.0063641632928819        19.250082983154183        0.0000000000000000     
  -5.2455849420865199        19.434271670880218        0.0000000000000000     
  -2.7812416806515419        19.454604463336327        0.0000000000000000     
   2.9202639374289090        19.468929137151171        0.0000000000000000     
   4.6933063115243261        19.606226983900349        0.0000000000000000     
   6.8985916436422245        19.760803069124560        0.0000000000000000     
   8.4628755495733188        19.977569924393425        0.0000000000000000     
  -8.7040553259583149        20.192699670481765        0.0000000000000000     
  -7.4893615936886215        21.119547343927220        0.0000000000000000     
  -4.7605237038137069        21.377428025937643        0.0000000000000000     
  -3.0952757085349401        21.447881548648805        0.0000000000000000     
 -0.93891208065007092        21.276574800137137        0.0000000000000000     
   1.0470427713128314        21.266882855517839        0.0000000000000000     
   3.0541436368033246        21.504911254664737        0.0000000000000000     
   5.3288341336425908        21.649287144730092        0.0000000000000000     
   7.4013024061461126        21.837865332864652        0.0000000000000000     
   8.4866630526545492        21.120616435782789        0.0000000000000000     
  -7.2350271130254695        23.178173026281019        0.0000000000000000     
  -5.3076423755031437        23.349575450716760        0.0000000000000000     
  -2.9432770679771409        23.477024869978329        0.0000000000000000     
 -0.92578188022483932        23.752258654490298        0.0000000000000000     
   1.0427284958498328        23.774969912389828        0.0000000000000000     
   3.1966309672975499        23.553752701707840        0.0000000000000000     
   4.8396563857487065        23.605677225946032        0.0000000000000000     
   7.2374902264132182        23.858435471756046        0.0000000000000000     
  -8.5537119114398088        26.162527397920055        0.0000000000000000     
  -7.3718201907205492        25.358567805549441        0.0000000000000000     
  -4.6711683261396475        25.409670196678409        0.0000000000000000     
  -2.8614423005252263        25.494006461652429        0.0000000000000000     
   2.8297833789371873        25.582332613260895        0.0000000000000000     
   5.4142608838444586        25.553990104454527        0.0000000000000000     
   7.3416774127737732        25.544832302305199        0.0000000000000000     
  -10.273038076733307        27.855130638705177        0.0000000000000000     
  -8.9410033896406915        27.544328712783983        0.0000000000000000     
  -6.6936403282375441        27.864747250258244        0.0000000000000000     
  -5.0719024287350845        27.286162905314942        0.0000000000000000     
  -2.8858694835204304        27.339588378520023        0.0000000000000000     
   3.0274436081450067        27.524123164056771        0.0000000000000000     
   4.8786088634571456        27.493375813441556        0.0000000000000000     
   7.8192820890570545        27.405300456375212        0.0000000000000000     
   9.7562597344962043        28.036336204628594        0.0000000000000000     
   10.949190212403495        28.126992342607082        0.0000000000000000     
  -16.173679400491455        30.054825767301580        0.0000000000000000     
  -14.924011533134777        29.964449062679090        0.0000000000000000     
  -13.161303470823356        29.677890080204747        0.0000000000000000     
  -11.060435106321419        29.177290520811471        0.0000000000000000     
  -8.9336962293666833        29.690304917298000        0.0000000000000000     
  -6.8524074417670047        30.188988763254716        0.0000000000000000     
  -4.6045776289319837        29.641889712953212        0.0000000000000000     
  -2.7804941210948879        29.520382145043438        0.0000000000000000     
 -0.85650801698359624        29.537679750307948        0.0000000000000000     
   1.1242570746226135        29.599306720240001        0.0000000000000000     
   3.2565998765407111        29.473070776115744        0.0000000000000000     
   5.3361158823309029        29.330402385346300        0.0000000000000000     
   7.0961634914543845        29.784447332787288        0.0000000000000000     
   9.3960284157809006        29.670255318149007        0.0000000000000000     
   11.668551181268553        29.365801824470903        0.0000000000000000     
   13.827589063154591        29.919281744385639        0.0000000000000000     
   15.607718461420536        30.272671023923959        0.0000000000000000     
   16.876974531294046        30.440315298107357        0.0000000000000000     
  -18.454512217730031        31.954506187712816        0.0000000000000000     
  -16.907806189182789        31.356788990094795        0.0000000000000000     
  -14.845543058104768        31.639408362444424        0.0000000000000000     
  -12.941836609884207        31.580829033491177        0.0000000000000000     
  -10.993736063784837        31.527583626787564        0.0000000000000000     
  -9.0641985540670138        31.672270341098120        0.0000000000000000     
  -5.5893927647972923        31.478734030557227        0.0000000000000000     
  -2.5288114514632047        31.171756845605238        0.0000000000000000     
 -0.81962282227023830        31.408356813322516        0.0000000000000000     
  0.97010484207359915        31.519119865378656        0.0000000000000000     
   5.1377129590323234        31.638888002722098        0.0000000000000000     
   7.3025103157936684        31.580841085370245        0.0000000000000000     
   9.1982115925197956        31.555509547973333        0.0000000000000000     
   11.312543038164630        31.576795027381749        0.0000000000000000     
   13.351489574074696        31.732772061979102        0.0000000000000000     
   15.288068078734719        31.915892494475592        0.0000000000000000     
   17.439856389965716        31.884130447772389        0.0000000000000000     
   18.916959656645012        32.769242260613254        0.0000000000000000     
  -18.614105140137685        33.456455290300156        0.0000000000000000     
  -16.757462415872702        33.477202801892531        0.0000000000000000     
  -14.855177967498083        33.505505862050917        0.0000000000000000     
  -12.737772924001332        33.693003493969499        0.0000000000000000     
  -10.942457550930557        33.313692342040369        0.0000000000000000     
  -9.0376616717045657        33.864478806666447        0.0000000000000000     
  -7.2944900803622605        33.379753176543758        0.0000000000000000     
   6.5692673630112299        33.457629883653070        0.0000000000000000     
   8.9985142946348269        33.494634014573300        0.0000000000000000     
   11.037355946206302        33.535868989722829        0.0000000000000000     
   13.016668046093686        33.637909029003744        0.0000000000000000     
   14.991990302391645        33.763248340435858        0.0000000000000000     
   16.908247148324740        33.963487588436323        0.0000000000000000     
   18.758446151822149        34.268214309048197        0.0000000000000000     
  -18.590465687175477        35.423106914172401        0.0000000000000000     
  -16.748035419108795        35.341067614018662        0.0000000000000000     
  -14.872895317083833        35.381113118428829        0.0000000000000000     
  -13.176135973799314        35.412595194788331        0.0000000000000000     
  -10.980473011898681        35.495232822495076        0.0000000000000000     
  -8.8891947274855365        35.475532771644012        0.0000000000000000     
  -7.0583731097074072        35.548552806063206        0.0000000000000000     
  -5.1236227202883535        35.311459139536915        0.0000000000000000     
  -2.6070050263156932        35.582036720484346        0.0000000000000000     
 -0.87636392468424651        35.504198896559252        0.0000000000000000     
   1.0335384497433540        35.452992326755826        0.0000000000000000     
   2.9591894309243538        35.777319375720467        0.0000000000000000     
   5.1081333198183732        35.221663994531802        0.0000000000000000     
   7.0984376512942280        35.170877819406428        0.0000000000000000     
   8.8592233003504468        35.660864366788324        0.0000000000000000     
   10.840707263939578        35.241828877738300        0.0000000000000000     
   12.580246899693188        35.714357462257574        0.0000000000000000     
   14.693151882683136        35.652526404687087        0.0000000000000000     
   16.559788904722822        35.772183648262157        0.0000000000000000     
   18.344052713556522        36.124081322006511        0.0000000000000000     
  -18.367071012490996        36.886116461433495        0.0000000000000000     
  -16.891239020443869        37.177434864612074        0.0000000000000000     
  -14.846013012505795        37.287315425876180        0.0000000000000000     
  -12.789991041688696        37.098770442934104        0.0000000000000000     
  -11.387585702833768        37.481320445428487        0.0000000000000000     
  -9.0665775396325934        37.474466778618847        0.0000000000000000     
  -6.9741890867331442        37.533707793885604        0.0000000000000000     
  -4.7553900886215237        37.456224757721635        0.0000000000000000     
  -2.8964422759458350        37.541087080455071        0.0000000000000000     
 -0.89479423095820654        37.454102013699732        0.0000000000000000     
   1.0690172762363837        37.454870017485995        0.0000000000000000     
   2.8837007707620823        37.527526042592271        0.0000000000000000     
   4.8973531526102878        37.321208897141702        0.0000000000000000     
   6.8406799072507898        37.241921787743266        0.0000000000000000     
   8.6855002668889689        37.064733576882460        0.0000000000000000     
   10.563634978375728        37.393748872153026        0.0000000000000000     
   12.761040352612508        37.444256826116643        0.0000000000000000     
   14.406948804240907        37.487412198557912        0.0000000000000000     
   16.318755182760437        37.528182125943559        0.0000000000000000     
   17.814275080509788        37.443349807564260        0.0000000000000000     
  -6.9818312811331458        39.359153247836602        0.0000000000000000     
  -4.9113180680111101        39.479492082038604        0.0000000000000000     
   3.2230377338906977        39.301391260307305        0.0000000000000000     
   4.9092830670316845        39.580800606705623        0.0000000000000000     
   6.7624160226543921        39.298425784215070        0.0000000000000000     
  -8.6344921110826238        41.496248976982031        0.0000000000000000     
  -6.8647866050716608        41.460664344158729        0.0000000000000000     
  -4.8852877600737150        41.489717274082743        0.0000000000000000     
  -2.8224729959075341        41.664960546353747        0.0000000000000000     
 -0.91493219978477747        41.343960500481415        0.0000000000000000     
   1.0784467811591614        41.332899143831845        0.0000000000000000     
   5.1794735926693489        41.488578694762047        0.0000000000000000     
   7.0433164810589348        41.430131621573054        0.0000000000000000     
   8.8776635178209133        41.856140158244173        0.0000000000000000     
  -8.8043174059391180        43.429021631251501        0.0000000000000000     
  -6.8633491062004852        43.445806009922542        0.0000000000000000     
  -4.9195609000799090        43.433658438025901        0.0000000000000000     
  -2.9737048836892419        43.597662947727493        0.0000000000000000     
 -0.95277512842818823        43.562810234166108        0.0000000000000000     
   1.0921337925366841        43.549096717115731        0.0000000000000000     
   3.0749683899017173        43.541186344039581        0.0000000000000000     
   4.9831652346506079        43.431710491700244        0.0000000000000000     
   7.0185705928757969        43.687762733043357        0.0000000000000000     
   8.8851857447648950        43.485798649697294        0.0000000000000000     
  -8.8301530981702552        45.514308385212061        0.0000000000000000     
  -6.8856448698346560        45.472879107151101        0.0000000000000000     
  -4.8695526527429411        45.554794553199542        0.0000000000000000     
  -1.1223363650160065        45.696489515680248        0.0000000000000000     
   1.2050018331422407        45.677480843093583        0.0000000000000000     
   5.1048679093511780        45.635214426956857        0.0000000000000000     
   7.0326543626756921        45.509065147782927        0.0000000000000000     
   8.7328783071456328        45.503441332011000        0.0000000000000000     
  -8.6641235847847380        47.467268961850870        0.0000000000000000     
  -6.9479445924860226        47.486962595475141        0.0000000000000000     
  -5.1743036035689700        47.441021613687205        0.0000000000000000     
 -0.86745701161403466        47.372600414091437        0.0000000000000000     
  0.92989145727574030        47.435784177162937        0.0000000000000000     
   5.2707039410033163        47.351842598725838        0.0000000000000000     
   7.1259104414068615        47.297520643261159        0.0000000000000000     
   8.9070439343782812        47.109345331667114        0.0000000000000000     
  -7.1210119976582282        49.632019066733406        0.0000000000000000     
  -4.9764166893738180        49.450935143494718        0.0000000000000000     
  -2.9599990833836554        49.403455049889018        0.0000000000000000     
 -0.93406637563928552        49.378354093986097        0.0000000000000000     
   1.0778385702331190        49.568778800975494        0.0000000000000000     
   3.0677398386882513        49.409181416487257        0.0000000000000000     
   5.1244100974461926        49.445773239485128        0.0000000000000000     
   7.2665652057842296        49.572526800148474        0.0000000000000000     
  -6.5765512885125341        51.128566236587638        0.0000000000000000     
  -5.0833428246146086        51.656343216076110        0.0000000000000000     
  -2.8960106388236802        51.413573229055821        0.0000000000000000     
 -0.70268789024020994        51.346424230877595        0.0000000000000000     
   1.0785208108645969        51.317994247015754        0.0000000000000000     
   2.8564673853617211        51.386918851033876        0.0000000000000000     
   5.1858808058407666        51.656907801686465        0.0000000000000000     
  -2.8494382311394353        53.163362263009581        0.0000000000000000     
 -0.89007830579153191        53.193499737184595        0.0000000000000000     
   1.0817669163052444        53.012882653206233        0.0000000000000000     
   2.9969675684204367        53.115329720898252        0.0000000000000000     
   2.0201469970228816        16.487297615934928        0.0000000000000000     
   2.9693369707024586        16.430978556989519        0.0000000000000000     
   2.2221983501826670        17.114297942518462        0.0000000000000000     
   3.8354444641999432        16.632992308867951        0.0000000000000000     
   3.9060110177806879        17.547513006398116        0.0000000000000000     
  -3.8284019393527129        18.619484935257027        0.0000000000000000     
  -3.0221869047710639        18.468823718465217        0.0000000000000000     
  -3.9047189802684703        19.476733491401717        0.0000000000000000     
  -2.1659416424244378        19.801442627305889        0.0000000000000000     
   3.0034941771282355        18.457560985427431        0.0000000000000000     
   2.2442749485917441        19.782843677454913        0.0000000000000000     
   3.8038971747901860        18.416887917136808        0.0000000000000000     
  -3.8218761816121782        20.333587920393157        0.0000000000000000     
  -3.0064652384393078        20.456583478692426        0.0000000000000000     
  -1.9518330526734047        20.438593665546087        0.0000000000000000     
  -1.2814220084331527        20.649460436551713        0.0000000000000000     
  -2.0105548862536229        21.451064867764270        0.0000000000000000     
   1.3792838483444267        20.621501733339830        0.0000000000000000     
   5.7569468680683911E-002   21.414002711896302        0.0000000000000000     
   2.0313817639789273        20.429106496552166        0.0000000000000000     
   3.0726922889105754        20.535860453530738        0.0000000000000000     
   2.0941084893563691        21.462229410829263        0.0000000000000000     
   3.8826076545474018        20.654692457412612        0.0000000000000000     
   4.0199379079303510        21.552466683723367        0.0000000000000000     
  -3.8571035413367811        22.545984557098382        0.0000000000000000     
  -3.0287625346665155        22.479873855864337        0.0000000000000000     
  -3.9338463974915041        23.430469570131304        0.0000000000000000     
  -1.9793121092021493        22.492228262612361        0.0000000000000000     
 -0.94891628362996050        22.507620821156767        0.0000000000000000     
  -1.9731290684645428        23.530739954819996        0.0000000000000000     
   5.9754879928282836E-002   22.515166445994886        0.0000000000000000     
   1.0683743486875845        22.514772901358693        0.0000000000000000     
   5.7877396436959730E-002   23.631112557995383        0.0000000000000000     
   2.0977355464565210        22.512629800902126        0.0000000000000000     
   3.1406420715641885        22.509639328315462        0.0000000000000000     
   2.1132851190167772        23.571123996910949        0.0000000000000000     
   3.9563394191062788        22.436753744208492        0.0000000000000000     
  -3.8046624394050461        24.326278845170656        0.0000000000000000     
  -2.9790397434011089        24.440697008888723        0.0000000000000000     
  -1.9186379012877550        24.550355178649070        0.0000000000000000     
  -1.2493688936330185        24.377097259322131        0.0000000000000000     
  -2.1561168336993837        25.181777366177595        0.0000000000000000     
   1.3585539197681016        24.418795163745738        0.0000000000000000     
   2.0167244750552342        24.611217424437054        0.0000000000000000     
   3.0898340816737226        24.561714269853173        0.0000000000000000     
   2.2030468028118597        25.247930327924863        0.0000000000000000     
   3.9211958841931094        24.670352793382229        0.0000000000000000     
   3.9982676816587173        25.548087901362443        0.0000000000000000     
  -3.7673474140644760        26.506193252856708        0.0000000000000000     
  -2.9875399284880206        26.477198829801416        0.0000000000000000     
  -3.8579962126928429        27.328920287069206        0.0000000000000000     
   3.0574178290054821        26.546460943993079        0.0000000000000000     
   2.3699397607074553        27.877743514791806        0.0000000000000000     
   3.9008406376407470        26.418115414439931        0.0000000000000000     
  -5.6471532841631324        28.830228978025978        0.0000000000000000     
  -4.8507630744186212        28.570373591537777        0.0000000000000000     
  -5.4968374619866713        29.800307866110352        0.0000000000000000     
  -3.8012004517178619        28.443860810158007        0.0000000000000000     
  -2.6326820927197838        28.361958808930915        0.0000000000000000     
  -3.7176835392286280        29.532512549933500        0.0000000000000000     
  -1.8363032775674724        28.770667774701707        0.0000000000000000     
  -1.9471254971066168        29.530371254672996        0.0000000000000000     
  -1.2943694193988593        28.962008679720988        0.0000000000000000     
 -0.83040490237287823        29.086588399372957        0.0000000000000000     
  -1.3347419222729564        29.516181550080660        0.0000000000000000     
   9.1474904307544180E-002   29.693072430614652        0.0000000000000000     
 -0.37998741836505884        29.172529390685657        0.0000000000000000     
   8.3546504435342686E-002   29.205280424728628        0.0000000000000000     
 -0.39398167599454553        29.626865471673167        0.0000000000000000     