 VARIABLES = "X", "Y", "Z"
 ZONE F=FEPOINT, ET=BRICK, N=         462 E=         306
  -3.1636651158779312        1.2920704373473106        0.0000000000000000     
  -2.4616905779590672        1.2624208625760667        0.0000000000000000     
  -1.7405470499100304        1.2550848323501285        0.0000000000000000     
 -0.99976019287657458        1.2529654516999291        0.0000000000000000     
 -0.25024277246266502        1.2523123394314641        0.0000000000000000     
  0.50124211328620949        1.2522256618644594        0.0000000000000000     
   1.2484416090131436        1.2435371647626032        0.0000000000000000     
   1.9630951496412512        1.1949091608475533        0.0000000000000000     
   2.4868043465067204        1.0926124534022088        0.0000000000000000     
  -3.0627406667751185        2.0121622899399685        0.0000000000000000     
  -2.4424798087304462        1.9940938143722049        0.0000000000000000     
  -1.7432647978398907        2.0045402378326838        0.0000000000000000     
  -1.0033587759639555        2.0053018900602946        0.0000000000000000     
 -0.25206227291922667        2.0058506482138303        0.0000000000000000     
  0.50344926968475900        2.0070510149394751        0.0000000000000000     
   1.2621106431464855        2.0031943226348687        0.0000000000000000     
   2.0081873164990598        1.9241886877510908        0.0000000000000000     
   2.8349119217145828        1.5940232838302768        0.0000000000000000     
  -2.9938922042503915        2.4984806925778402        0.0000000000000000     
  -2.4958293887645104        2.7462715100265531        0.0000000000000000     
  -1.7471238124244282        2.7296741468313499        0.0000000000000000     
  -1.0133974648168826        2.7568212606152245        0.0000000000000000     
 -0.25511031673541151        2.7545399563052744        0.0000000000000000     
  0.50302134528471443        2.7548611863712407        0.0000000000000000     
   1.2625642902137215        2.7687082823116445        0.0000000000000000     
   2.1125745476890105        2.8243563265631466        0.0000000000000000     
   2.7239635052743489        2.4836603318335029        0.0000000000000000     
  -2.2786446343975113        3.2705851044125818        0.0000000000000000     
  -1.8036600809022834        3.3790541457167311        0.0000000000000000     
  -1.0307524470401241        3.5816163178735692        0.0000000000000000     
 -0.23475089516061134        3.4427059206507185        0.0000000000000000     
  0.47985599345132302        3.4376956608902596        0.0000000000000000     
   1.2541824033753273        3.5652592574167010        0.0000000000000000     
   1.8543494925072019        3.4368744302571463        0.0000000000000000     
 -0.69959008138990719        4.0367301456570379        0.0000000000000000     
 -0.20529135420386790        4.0015165044779515        0.0000000000000000     
  0.45551410301892953        3.9886903219177330        0.0000000000000000     
  0.94553622216009880        4.0022641647979667        0.0000000000000000     
  -3.6271968973400970        2.1862510690660435        0.0000000000000000     
  -3.9056873651996509        1.3634849189880560        0.0000000000000000     
  -4.0000000000000000       0.50000000000000044        0.0000000000000000     
  -3.2441405989622885       0.50000000000000000        0.0000000000000000     
  -2.4882811979245769       0.50000000000000000        0.0000000000000000     
  -1.7499999421307466       0.50000000000000000        0.0000000000000000     
 -0.99999998451936278       0.50000000000000000        0.0000000000000000     
 -0.25000005786925339       0.50000000000000000        0.0000000000000000     
  0.50000003857950226       0.50000000000000000        0.0000000000000000     
   1.2500000578692543       0.50000000000000000        0.0000000000000000     
   2.0000003268507918       0.50000000000000000        0.0000000000000000     
   2.6679689245100962       0.50000000000000000        0.0000000000000000     
   3.3339844622550476       0.50000000000000000        0.0000000000000000     
   4.0000000000000000       0.50000000000000000        0.0000000000000000     
   3.7711308742777909        1.8336311068165834        0.0000000000000000     
   3.1107140354655871        3.0146487209066399        0.0000000000000000     
   2.6683179691000261        3.4799461766578790        0.0000000000000000     
   2.1805973167202803        3.8533558329399393        0.0000000000000000     
   1.6194874778866160        4.1574937196075190        0.0000000000000000     
   1.1672909850426805        4.3258896685918806        0.0000000000000000     
  0.51806554561856599        4.4663091269394197        0.0000000000000000     
 -0.25444727498984593        4.4918988694918411        0.0000000000000000     
 -0.91733554236921655        4.3933912599051972        0.0000000000000000     
  -1.3733248835733958        4.2568575650612734        0.0000000000000000     
  -2.0154840777118617        3.9551156178180151        0.0000000000000000     
  -2.5444613307995176        3.5863759550751344        0.0000000000000000     
  -2.9653117032368379        3.1845719403001000        0.0000000000000000     
  -3.3120498922068387        2.7428387172359647        0.0000000000000000     
  -3.1636651158779312        1.1189658222216410       0.64603521867365521     
  -2.4616905779590672        1.0932885372583376       0.63121043128803322     
  -1.7405470499100304        1.0869353487197446       0.62754241617506412     
 -0.99976019287657458        1.0850999112363828       0.62648272584996445     
 -0.25024277246266502        1.0845342994203688       0.62615616971573196     
  0.50124211328620949        1.0844592344454045       0.62611283093222958     
   1.2484416090131436        1.0769347752344895       0.62176858238130150     
   1.9630951496412512        1.0348216885087271       0.59745458042377653     
   2.4868043465067204       0.94623014113755410       0.54630622670110429     
  -3.0627406667751185        1.7425836596250821        1.0060811449699840     
  -2.4424798087304462        1.7269359007757403       0.99704690718610234     
  -1.7432647978398907        1.7359827688712048        1.0022701189163417     
  -1.0033587759639555        1.7366423790491647        1.0026509450301471     
 -0.25206227291922667        1.7371176175506604        1.0029253241069149     
  0.50344926968475900        1.7381571656289265        1.0035255074697373     
   1.2621106431464855        1.7348171721185575        1.0015971613174341     
   2.0081873164990598        1.6663962852670877       0.96209434387554527     
   2.8349119217145828        1.3804646580209123       0.79701164191513829     
  -2.9938922042503915        2.1637477506373481        1.2492403462889199     
  -2.4958293887645104        2.3783408933724459        1.3731357550132763     
  -1.7471238124244282        2.3639671552095631        1.3648370734156747     
  -1.0133974648168826        2.3874772453858251        1.3784106303076120     
 -0.25511031673541151        2.3855015778996456        1.3772699781526370     
  0.50302134528471443        2.3857797712972317        1.3774305931856201     
   1.2625642902137215        2.3977717081502616        1.3843541411558220     
   2.1125745476890105        2.4459643281429830        1.4121781632815731     
   2.7239635052743489        2.1509129417395023        1.2418301659167512     
  -2.2786446343975113        2.8324097856602766        1.6352925522062907     
  -1.8036600809022834        2.9263467309538136        1.6895270728583653     
  -1.0307524470401241        3.1017707178873923        1.7908081589367844     
 -0.23475089516061134        2.9814707850426161        1.7213529603253590     
  0.47985599345132302        2.9771317728105000        1.7188478304451296     
   1.2541824033753273        3.0876050880005068        1.7826296287083503     
   1.8543494925072019        2.9764205662198577        1.7184372151285729     
 -0.69959008138990719        3.4959108543614525        2.0183650728285185     
 -0.20529135420386790        3.4654149465406139        2.0007582522389753     
  0.45551410301892953        3.4543071466098874        1.9943451609588663     
  0.94553622216009880        3.4660624393711483        2.0011320823989829     
  -3.6271968973400970        1.8933489648620812        1.0931255345330215     
  -3.9056873651996509        1.1808125775206240       0.68174245949402790     
  -4.0000000000000000       0.43301270189221974       0.25000000000000017     
  -3.2441405989622885       0.43301270189221935       0.24999999999999997     
  -2.4882811979245769       0.43301270189221935       0.24999999999999997     
  -1.7499999421307466       0.43301270189221935       0.24999999999999997     
 -0.99999998451936278       0.43301270189221935       0.24999999999999997     
 -0.25000005786925339       0.43301270189221935       0.24999999999999997     
  0.50000003857950226       0.43301270189221935       0.24999999999999997     
   1.2500000578692543       0.43301270189221935       0.24999999999999997     
   2.0000003268507918       0.43301270189221935       0.24999999999999997     
   2.6679689245100962       0.43301270189221935       0.24999999999999997     
   3.3339844622550476       0.43301270189221935       0.24999999999999997     
   4.0000000000000000       0.43301270189221935       0.24999999999999997     
   3.7711308742777909        1.5879711196725388       0.91681555340829157     
   3.1107140354655871        2.6107623757914147        1.5073243604533197     
   2.6683179691000261        3.0137217927882531        1.7399730883289393     
   2.1805973167202803        3.3371040411469330        1.9266779164699694     
   1.6194874778866160        3.6004951772543698        2.0787468598037591     
   1.1672909850426805        3.7463303469692151        2.1629448342959399     
  0.51806554561856599        3.8679371650838350        2.2331545634697094     
 -0.25444727498984593        3.8900985322105353        2.2459494347459201     
 -0.91733554236921655        3.8047884398424223        2.1966956299525981     
  -1.3733248835733958        3.6865467916350321        2.1284287825306363     
  -2.0154840777118617        3.4252305999349861        1.9775578089090073     
  -2.5444613307995176        3.1058926846167454        1.7931879775375670     
  -2.9653117032368379        2.7579202004789876        1.5922859701500498     
  -3.3120498922068387        2.3753680076098682        1.3714193586179821     
  -3.1636651158779312       0.64603521867365543        1.1189658222216408     
  -2.4616905779590672       0.63121043128803345        1.0932885372583374     
  -1.7405470499100304       0.62754241617506434        1.0869353487197444     
 -0.99976019287657458       0.62648272584996467        1.0850999112363826     
 -0.25024277246266502       0.62615616971573218        1.0845342994203686     
  0.50124211328620949       0.62611283093222980        1.0844592344454043     
   1.2484416090131436       0.62176858238130173        1.0769347752344893     
   1.9630951496412512       0.59745458042377675        1.0348216885087269     
   2.4868043465067204       0.54630622670110451       0.94623014113755399     
  -3.0627406667751185        1.0060811449699845        1.7425836596250819     
  -2.4424798087304462       0.99704690718610267        1.7269359007757401     
  -1.7432647978398907        1.0022701189163421        1.7359827688712046     
  -1.0033587759639555        1.0026509450301475        1.7366423790491645     
 -0.25206227291922667        1.0029253241069154        1.7371176175506602     
  0.50344926968475900        1.0035255074697378        1.7381571656289263     
   1.2621106431464855        1.0015971613174346        1.7348171721185572     
   2.0081873164990598       0.96209434387554560        1.6663962852670875     
   2.8349119217145828       0.79701164191513862        1.3804646580209123     
  -2.9938922042503915        1.2492403462889203        2.1637477506373477     
  -2.4958293887645104        1.3731357550132768        2.3783408933724455     
  -1.7471238124244282        1.3648370734156752        2.3639671552095627     
  -1.0133974648168826        1.3784106303076125        2.3874772453858246     
 -0.25511031673541151        1.3772699781526374        2.3855015778996451     
  0.50302134528471443        1.3774305931856206        2.3857797712972313     
   1.2625642902137215        1.3843541411558224        2.3977717081502612     
   2.1125745476890105        1.4121781632815735        2.4459643281429826     
   2.7239635052743489        1.2418301659167517        2.1509129417395019     
  -2.2786446343975113        1.6352925522062913        2.8324097856602766     
  -1.8036600809022834        1.6895270728583660        2.9263467309538131     
  -1.0307524470401241        1.7908081589367850        3.1017707178873919     
 -0.23475089516061134        1.7213529603253597        2.9814707850426161     
  0.47985599345132302        1.7188478304451302        2.9771317728104996     
   1.2541824033753273        1.7826296287083510        3.0876050880005064     
   1.8543494925072019        1.7184372151285736        2.9764205662198573     
 -0.69959008138990719        2.0183650728285194        3.4959108543614521     
 -0.20529135420386790        2.0007582522389762        3.4654149465406134     
  0.45551410301892953        1.9943451609588669        3.4543071466098869     
  0.94553622216009880        2.0011320823989838        3.4660624393711479     
  -3.6271968973400970        1.0931255345330220        1.8933489648620809     
  -3.9056873651996509       0.68174245949402812        1.1808125775206237     
  -4.0000000000000000       0.25000000000000028       0.43301270189221969     
  -3.2441405989622885       0.25000000000000006       0.43301270189221930     
  -2.4882811979245769       0.25000000000000006       0.43301270189221930     
  -1.7499999421307466       0.25000000000000006       0.43301270189221930     
 -0.99999998451936278       0.25000000000000006       0.43301270189221930     
 -0.25000005786925339       0.25000000000000006       0.43301270189221930     
  0.50000003857950226       0.25000000000000006       0.43301270189221930     
   1.2500000578692543       0.25000000000000006       0.43301270189221930     
   2.0000003268507918       0.25000000000000006       0.43301270189221930     
   2.6679689245100962       0.25000000000000006       0.43301270189221930     
   3.3339844622550476       0.25000000000000006       0.43301270189221930     
   4.0000000000000000       0.25000000000000006       0.43301270189221930     
   3.7711308742777909       0.91681555340829191        1.5879711196725386     
   3.1107140354655871        1.5073243604533204        2.6107623757914142     
   2.6683179691000261        1.7399730883289399        3.0137217927882531     
   2.1805973167202803        1.9266779164699701        3.3371040411469326     
   1.6194874778866160        2.0787468598037599        3.6004951772543694     
   1.1672909850426805        2.1629448342959408        3.7463303469692146     
  0.51806554561856599        2.2331545634697103        3.8679371650838346     
 -0.25444727498984593        2.2459494347459210        3.8900985322105348     
 -0.91733554236921655        2.1966956299525990        3.8047884398424219     
  -1.3733248835733958        2.1284287825306372        3.6865467916350316     
  -2.0154840777118617        1.9775578089090080        3.4252305999349857     
  -2.5444613307995176        1.7931879775375676        3.1058926846167449     
  -2.9653117032368379        1.5922859701500505        2.7579202004789871     
  -3.3120498922068387        1.3714193586179826        2.3753680076098678     
  -3.1636651158779312        7.9116496268515237E-017   1.2920704373473106     
  -2.4616905779590672        7.7300983426531039E-017   1.2624208625760667     
  -1.7405470499100304        7.6851781129798866E-017   1.2550848323501285     
 -0.99976019287657458        7.6722006493326785E-017   1.2529654516999291     
 -0.25024277246266502        7.6682014900873812E-017   1.2523123394314641     
  0.50124211328620949        7.6676707430624302E-017   1.2522256618644594     
   1.2484416090131436        7.6144690422364840E-017   1.2435371647626032     
   1.9630951496412512        7.3167083955190298E-017   1.1949091608475533     
   2.4868043465067204        6.6903217188377583E-017   1.0926124534022088     
  -3.0627406667751185        1.2320940538699955E-016   2.0121622899399685     
  -2.4424798087304462        1.2210303034852286E-016   1.9940938143722049     
  -1.7432647978398907        1.2274268930119352E-016   2.0045402378326838     
  -1.0033587759639555        1.2278932704932386E-016   2.0053018900602946     
 -0.25206227291922667        1.2282292879513555E-016   2.0058506482138303     
  0.50344926968475900        1.2289643005855373E-016   2.0070510149394751     
   1.2621106431464855        1.2266027576424712E-016   2.0031943226348687     
   2.0081873164990598        1.1782257587049597E-016   1.9241886877510908     
   2.8349119217145828        9.7605775615455073E-017   1.5940232838302768     
  -2.9938922042503915        1.5298781914484571E-016   2.4984806925778402     
  -2.4958293887645104        1.6816063071717932E-016   2.7462715100265531     
  -1.7471238124244282        1.6714433533161474E-016   2.7296741468313499     
  -1.0133974648168826        1.6880661663169029E-016   2.7568212606152245     
 -0.25511031673541151        1.6866692703063723E-016   2.7545399563052744     
  0.50302134528471443        1.6868659669924101E-016   2.7548611863712407     
   1.2625642902137215        1.6953448678528608E-016   2.7687082823116445     
   2.1125745476890105        1.7294194674885670E-016   2.8243563265631466     
   2.7239635052743489        1.5208033377745762E-016   2.4836603318335029     
  -2.2786446343975113        2.0026557897289401E-016   3.2705851044125818     
  -1.8036600809022834        2.0690739218487945E-016   3.3790541457167311     
  -1.0307524470401241        2.1931074797288979E-016   3.5816163178735692     
 -0.23475089516061134        2.1080493930652721E-016   3.4427059206507185     
  0.47985599345132302        2.1049814937760007E-016   3.4376956608902596     
   1.2541824033753273        2.1830916688629163E-016   3.5652592574167010     
   1.8543494925072019        2.1044786350428988E-016   3.4368744302571463     
 -0.69959008138990719        2.4717843259502603E-016   4.0367301456570379     
 -0.20529135420386790        2.4502221894721146E-016   4.0015165044779515     
  0.45551410301892953        2.4423684177632886E-016   3.9886903219177330     
  0.94553622216009880        2.4506799993809924E-016   4.0022641647979667     
  -3.6271968973400970        1.3386926869321045E-016   2.1862510690660435     
  -3.9056873651996509        8.3489372086220556E-017   1.3634849189880560     
  -4.0000000000000000        3.0616169978683855E-017  0.50000000000000044     
  -3.2441405989622885        3.0616169978683830E-017  0.50000000000000000     
  -2.4882811979245769        3.0616169978683830E-017  0.50000000000000000     
  -1.7499999421307466        3.0616169978683830E-017  0.50000000000000000     
 -0.99999998451936278        3.0616169978683830E-017  0.50000000000000000     
 -0.25000005786925339        3.0616169978683830E-017  0.50000000000000000     
  0.50000003857950226        3.0616169978683830E-017  0.50000000000000000     
   1.2500000578692543        3.0616169978683830E-017  0.50000000000000000     
   2.0000003268507918        3.0616169978683830E-017  0.50000000000000000     
   2.6679689245100962        3.0616169978683830E-017  0.50000000000000000     
   3.3339844622550476        3.0616169978683830E-017  0.50000000000000000     
   4.0000000000000000        3.0616169978683830E-017  0.50000000000000000     
   3.7711308742777909        1.1227752328899738E-016   1.8336311068165834     
   3.1107140354655871        1.8459399533059896E-016   3.0146487209066399     
   2.6683179691000261        2.1308524732245706E-016   3.4799461766578790     
   2.1805973167202803        2.3594999433928400E-016   3.8533558329399393     
   1.6194874778866160        2.5457306880962857E-016   4.1574937196075190     
   1.1672909850426805        2.6488434680528258E-016   4.3258896685918806     
  0.51806554561856599        2.7348255881544848E-016   4.4663091269394197     
 -0.25444727498984593        2.7504947863083990E-016   4.4918988694918411     
 -0.91733554236921655        2.6901762719224284E-016   4.3933912599051972     
  -1.3733248835733958        2.6065734957392421E-016   4.2568575650612734     
  -2.0154840777118617        2.4218098408092695E-016   3.9551156178180151     
  -2.5444613307995176        2.1960219169608976E-016   3.5863759550751344     
  -2.9653117032368379        1.9499879166714968E-016   3.1845719403001000     
  -3.3120498922068387        1.6795043278202282E-016   2.7428387172359647     
  -3.1636651158779312      -0.64603521867365499        1.1189658222216412     
  -2.4616905779590672      -0.63121043128803300        1.0932885372583376     
  -1.7405470499100304      -0.62754241617506390        1.0869353487197446     
 -0.99976019287657458      -0.62648272584996423        1.0850999112363828     
 -0.25024277246266502      -0.62615616971573174        1.0845342994203688     
  0.50124211328620949      -0.62611283093222936        1.0844592344454045     
   1.2484416090131436      -0.62176858238130139        1.0769347752344898     
   1.9630951496412512      -0.59745458042377642        1.0348216885087274     
   2.4868043465067204      -0.54630622670110418       0.94623014113755421     
  -3.0627406667751185       -1.0060811449699838        1.7425836596250823     
  -2.4424798087304462      -0.99704690718610200        1.7269359007757406     
  -1.7432647978398907       -1.0022701189163414        1.7359827688712051     
  -1.0033587759639555       -1.0026509450301468        1.7366423790491650     
 -0.25206227291922667       -1.0029253241069147        1.7371176175506606     
  0.50344926968475900       -1.0035255074697371        1.7381571656289267     
   1.2621106431464855       -1.0015971613174339        1.7348171721185577     
   2.0081873164990598      -0.96209434387554493        1.6663962852670879     
   2.8349119217145828      -0.79701164191513807        1.3804646580209126     
  -2.9938922042503915       -1.2492403462889197        2.1637477506373486     
  -2.4958293887645104       -1.3731357550132759        2.3783408933724464     
  -1.7471238124244282       -1.3648370734156743        2.3639671552095631     
  -1.0133974648168826       -1.3784106303076116        2.3874772453858255     
 -0.25511031673541151       -1.3772699781526365        2.3855015778996456     
  0.50302134528471443       -1.3774305931856197        2.3857797712972317     
   1.2625642902137215       -1.3843541411558216        2.3977717081502621     
   2.1125745476890105       -1.4121781632815726        2.4459643281429835     
   2.7239635052743489       -1.2418301659167510        2.1509129417395028     
  -2.2786446343975113       -1.6352925522062902        2.8324097856602770     
  -1.8036600809022834       -1.6895270728583649        2.9263467309538140     
  -1.0307524470401241       -1.7908081589367837        3.1017707178873928     
 -0.23475089516061134       -1.7213529603253586        2.9814707850426165     
  0.47985599345132302       -1.7188478304451291        2.9771317728105005     
   1.2541824033753273       -1.7826296287083496        3.0876050880005068     
   1.8543494925072019       -1.7184372151285725        2.9764205662198582     
 -0.69959008138990719       -2.0183650728285181        3.4959108543614530     
 -0.20529135420386790       -2.0007582522389749        3.4654149465406143     
  0.45551410301892953       -1.9943451609588656        3.4543071466098878     
  0.94553622216009880       -2.0011320823989824        3.4660624393711488     
  -3.6271968973400970       -1.0931255345330213        1.8933489648620814     
  -3.9056873651996509      -0.68174245949402767        1.1808125775206240     
  -4.0000000000000000      -0.25000000000000011       0.43301270189221980     
  -3.2441405989622885      -0.24999999999999989       0.43301270189221941     
  -2.4882811979245769      -0.24999999999999989       0.43301270189221941     
  -1.7499999421307466      -0.24999999999999989       0.43301270189221941     
 -0.99999998451936278      -0.24999999999999989       0.43301270189221941     
 -0.25000005786925339      -0.24999999999999989       0.43301270189221941     
  0.50000003857950226      -0.24999999999999989       0.43301270189221941     
   1.2500000578692543      -0.24999999999999989       0.43301270189221941     
   2.0000003268507918      -0.24999999999999989       0.43301270189221941     
   2.6679689245100962      -0.24999999999999989       0.43301270189221941     
   3.3339844622550476      -0.24999999999999989       0.43301270189221941     
   4.0000000000000000      -0.24999999999999989       0.43301270189221941     
   3.7711308742777909      -0.91681555340829124        1.5879711196725390     
   3.1107140354655871       -1.5073243604533193        2.6107623757914147     
   2.6683179691000261       -1.7399730883289388        3.0137217927882536     
   2.1805973167202803       -1.9266779164699688        3.3371040411469335     
   1.6194874778866160       -2.0787468598037586        3.6004951772543703     
   1.1672909850426805       -2.1629448342959394        3.7463303469692155     
  0.51806554561856599       -2.2331545634697090        3.8679371650838354     
 -0.25444727498984593       -2.2459494347459197        3.8900985322105361     
 -0.91733554236921655       -2.1966956299525977        3.8047884398424228     
  -1.3733248835733958       -2.1284287825306358        3.6865467916350325     
  -2.0154840777118617       -1.9775578089090067        3.4252305999349866     
  -2.5444613307995176       -1.7931879775375663        3.1058926846167458     
  -2.9653117032368379       -1.5922859701500494        2.7579202004789880     
  -3.3120498922068387       -1.3714193586179817        2.3753680076098687     
  -3.1636651158779312       -1.1189658222216410       0.64603521867365521     
  -2.4616905779590672       -1.0932885372583376       0.63121043128803322     
  -1.7405470499100304       -1.0869353487197446       0.62754241617506412     
 -0.99976019287657458       -1.0850999112363828       0.62648272584996445     
 -0.25024277246266502       -1.0845342994203688       0.62615616971573196     
  0.50124211328620949       -1.0844592344454045       0.62611283093222958     
   1.2484416090131436       -1.0769347752344895       0.62176858238130150     
   1.9630951496412512       -1.0348216885087271       0.59745458042377653     
   2.4868043465067204      -0.94623014113755410       0.54630622670110429     
  -3.0627406667751185       -1.7425836596250821        1.0060811449699840     
  -2.4424798087304462       -1.7269359007757403       0.99704690718610234     
  -1.7432647978398907       -1.7359827688712048        1.0022701189163417     
  -1.0033587759639555       -1.7366423790491647        1.0026509450301471     
 -0.25206227291922667       -1.7371176175506604        1.0029253241069149     
  0.50344926968475900       -1.7381571656289265        1.0035255074697373     
   1.2621106431464855       -1.7348171721185575        1.0015971613174341     
   2.0081873164990598       -1.6663962852670877       0.96209434387554527     
   2.8349119217145828       -1.3804646580209123       0.79701164191513829     
  -2.9938922042503915       -2.1637477506373481        1.2492403462889199     
  -2.4958293887645104       -2.3783408933724459        1.3731357550132763     
  -1.7471238124244282       -2.3639671552095631        1.3648370734156747     
  -1.0133974648168826       -2.3874772453858251        1.3784106303076120     
 -0.25511031673541151       -2.3855015778996456        1.3772699781526370     
  0.50302134528471443       -2.3857797712972317        1.3774305931856201     
   1.2625642902137215       -2.3977717081502616        1.3843541411558220     
   2.1125745476890105       -2.4459643281429830        1.4121781632815731     
   2.7239635052743489       -2.1509129417395023        1.2418301659167512     
  -2.2786446343975113       -2.8324097856602766        1.6352925522062907     
  -1.8036600809022834       -2.9263467309538136        1.6895270728583653     
  -1.0307524470401241       -3.1017707178873923        1.7908081589367844     
 -0.23475089516061134       -2.9814707850426161        1.7213529603253590     
  0.47985599345132302       -2.9771317728105000        1.7188478304451296     
   1.2541824033753273       -3.0876050880005068        1.7826296287083503     
   1.8543494925072019       -2.9764205662198577        1.7184372151285729     
 -0.69959008138990719       -3.4959108543614525        2.0183650728285185     
 -0.20529135420386790       -3.4654149465406139        2.0007582522389753     
  0.45551410301892953       -3.4543071466098874        1.9943451609588663     
  0.94553622216009880       -3.4660624393711483        2.0011320823989829     
  -3.6271968973400970       -1.8933489648620812        1.0931255345330215     
  -3.9056873651996509       -1.1808125775206240       0.68174245949402790     
  -4.0000000000000000      -0.43301270189221974       0.25000000000000017     
  -3.2441405989622885      -0.43301270189221935       0.24999999999999997     
  -2.4882811979245769      -0.43301270189221935       0.24999999999999997     
  -1.7499999421307466      -0.43301270189221935       0.24999999999999997     
 -0.99999998451936278      -0.43301270189221935       0.24999999999999997     
 -0.25000005786925339      -0.43301270189221935       0.24999999999999997     
  0.50000003857950226      -0.43301270189221935       0.24999999999999997     
   1.2500000578692543      -0.43301270189221935       0.24999999999999997     