 VARIABLES = "X", "Y", "Z"
 ZONE F=FEPOINT, ET=BRICK, N=         330 E=         204
   0.0000000000000000       -3.1636651158779312       0.79207043734731086     
   0.0000000000000000       -2.4616905779590672       0.76242086257606667     
   0.0000000000000000       -1.7405470499100304       0.75508483235012858     
   0.0000000000000000      -0.99976019287657458       0.75296545169992901     
   0.0000000000000000      -0.25024277246266502       0.75231233943146381     
   0.0000000000000000       0.50124211328620949       0.75222566186445905     
   0.0000000000000000        1.2484416090131436       0.74353716476260279     
   0.0000000000000000        1.9630951496412512       0.69490916084755316     
   0.0000000000000000        2.4868043465067204       0.59261245340220869     
   0.0000000000000000       -3.0627406667751185        1.5121622899399692     
   0.0000000000000000       -2.4424798087304462        1.4940938143722049     
   0.0000000000000000       -1.7432647978398907        1.5045402378326842     
   0.0000000000000000       -1.0033587759639555        1.5053018900602946     
   0.0000000000000000      -0.25206227291922667        1.5058506482138296     
   0.0000000000000000       0.50344926968475900        1.5070510149394745     
   0.0000000000000000        1.2621106431464855        1.5031943226348683     
   0.0000000000000000        2.0081873164990598        1.4241886877510905     
   0.0000000000000000        2.8349119217145828        1.0940232838302766     
   0.0000000000000000       -2.9938922042503915        1.9984806925778404     
   0.0000000000000000       -2.4958293887645104        2.2462715100265536     
   0.0000000000000000       -1.7471238124244282        2.2296741468313503     
   0.0000000000000000       -1.0133974648168826        2.2568212606152245     
   0.0000000000000000      -0.25511031673541151        2.2545399563052739     
   0.0000000000000000       0.50302134528471443        2.2548611863712407     
   0.0000000000000000        1.2625642902137215        2.2687082823116445     
   0.0000000000000000        2.1125745476890105        2.3243563265631466     
   0.0000000000000000        2.7239635052743489        1.9836603318335031     
   0.0000000000000000       -2.2786446343975113        2.7705851044125818     
   0.0000000000000000       -1.8036600809022834        2.8790541457167311     
   0.0000000000000000       -1.0307524470401241        3.0816163178735692     
   0.0000000000000000      -0.23475089516061134        2.9427059206507189     
   0.0000000000000000       0.47985599345132302        2.9376956608902596     
   0.0000000000000000        1.2541824033753273        3.0652592574167015     
   0.0000000000000000        1.8543494925072019        2.9368744302571463     
   0.0000000000000000      -0.69959008138990719        3.5367301456570379     
   0.0000000000000000      -0.20529135420386790        3.5015165044779510     
   0.0000000000000000       0.45551410301892953        3.4886903219177325     
   0.0000000000000000       0.94553622216009880        3.5022641647979662     
   0.0000000000000000       -3.6271968973400970        1.6862510690660435     
   0.0000000000000000       -3.9056873651996509       0.86348491898805591     
   0.0000000000000000       -4.0000000000000000        4.8985871965894128E-016
   0.0000000000000000       -3.2441405989622885        0.0000000000000000     
   0.0000000000000000       -2.4882811979245769        0.0000000000000000     
   0.0000000000000000       -1.7499999421307466        0.0000000000000000     
   0.0000000000000000      -0.99999998451936278        0.0000000000000000     
   0.0000000000000000      -0.25000005786925339        0.0000000000000000     
   0.0000000000000000       0.50000003857950226        0.0000000000000000     
   0.0000000000000000        1.2500000578692543        0.0000000000000000     
   0.0000000000000000        2.0000003268507918        0.0000000000000000     
   0.0000000000000000        2.6679689245100962        0.0000000000000000     
   0.0000000000000000        3.3339844622550476        0.0000000000000000     
   0.0000000000000000        4.0000000000000000        0.0000000000000000     
   0.0000000000000000        3.7711308742777909        1.3336311068165834     
   0.0000000000000000        3.1107140354655871        2.5146487209066399     
   0.0000000000000000        2.6683179691000261        2.9799461766578790     
   0.0000000000000000        2.1805973167202803        3.3533558329399393     
   0.0000000000000000        1.6194874778866160        3.6574937196075195     
   0.0000000000000000        1.1672909850426805        3.8258896685918806     
   0.0000000000000000       0.51806554561856599        3.9663091269394193     
   0.0000000000000000      -0.25444727498984593        3.9918988694918416     
   0.0000000000000000      -0.91733554236921655        3.8933912599051967     
   0.0000000000000000       -1.3733248835733958        3.7568575650612734     
   0.0000000000000000       -2.0154840777118617        3.4551156178180151     
   0.0000000000000000       -2.5444613307995176        3.0863759550751344     
   0.0000000000000000       -2.9653117032368379        2.6845719403001000     
   0.0000000000000000       -3.3120498922068387        2.2428387172359647     
   1.0000000000000000       -3.1636651158779312       0.79207043734731086     
   1.0000000000000000       -2.4616905779590672       0.76242086257606667     
   1.0000000000000000       -1.7405470499100304       0.75508483235012858     
   1.0000000000000000      -0.99976019287657458       0.75296545169992901     
   1.0000000000000000      -0.25024277246266502       0.75231233943146381     
   1.0000000000000000       0.50124211328620949       0.75222566186445905     
   1.0000000000000000        1.2484416090131436       0.74353716476260279     
   1.0000000000000000        1.9630951496412512       0.69490916084755316     
   1.0000000000000000        2.4868043465067204       0.59261245340220869     
   1.0000000000000000       -3.0627406667751185        1.5121622899399692     
   1.0000000000000000       -2.4424798087304462        1.4940938143722049     
   1.0000000000000000       -1.7432647978398907        1.5045402378326842     
   1.0000000000000000       -1.0033587759639555        1.5053018900602946     
   1.0000000000000000      -0.25206227291922667        1.5058506482138296     
   1.0000000000000000       0.50344926968475900        1.5070510149394745     
   1.0000000000000000        1.2621106431464855        1.5031943226348683     
   1.0000000000000000        2.0081873164990598        1.4241886877510905     
   1.0000000000000000        2.8349119217145828        1.0940232838302766     
   1.0000000000000000       -2.9938922042503915        1.9984806925778404     
   1.0000000000000000       -2.4958293887645104        2.2462715100265536     
   1.0000000000000000       -1.7471238124244282        2.2296741468313503     
   1.0000000000000000       -1.0133974648168826        2.2568212606152245     
   1.0000000000000000      -0.25511031673541151        2.2545399563052739     
   1.0000000000000000       0.50302134528471443        2.2548611863712407     
   1.0000000000000000        1.2625642902137215        2.2687082823116445     
   1.0000000000000000        2.1125745476890105        2.3243563265631466     
   1.0000000000000000        2.7239635052743489        1.9836603318335031     
   1.0000000000000000       -2.2786446343975113        2.7705851044125818     
   1.0000000000000000       -1.8036600809022834        2.8790541457167311     
   1.0000000000000000       -1.0307524470401241        3.0816163178735692     
   1.0000000000000000      -0.23475089516061134        2.9427059206507189     
   1.0000000000000000       0.47985599345132302        2.9376956608902596     
   1.0000000000000000        1.2541824033753273        3.0652592574167015     
   1.0000000000000000        1.8543494925072019        2.9368744302571463     
   1.0000000000000000      -0.69959008138990719        3.5367301456570379     
   1.0000000000000000      -0.20529135420386790        3.5015165044779510     
   1.0000000000000000       0.45551410301892953        3.4886903219177325     
   1.0000000000000000       0.94553622216009880        3.5022641647979662     
   1.0000000000000000       -3.6271968973400970        1.6862510690660435     
   1.0000000000000000       -3.9056873651996509       0.86348491898805591     
   1.0000000000000000       -4.0000000000000000        4.8985871965894128E-016
   1.0000000000000000       -3.2441405989622885        0.0000000000000000     
   1.0000000000000000       -2.4882811979245769        0.0000000000000000     
   1.0000000000000000       -1.7499999421307466        0.0000000000000000     
   1.0000000000000000      -0.99999998451936278        0.0000000000000000     
   1.0000000000000000      -0.25000005786925339        0.0000000000000000     
   1.0000000000000000       0.50000003857950226        0.0000000000000000     
   1.0000000000000000        1.2500000578692543        0.0000000000000000     
   1.0000000000000000        2.0000003268507918        0.0000000000000000     
   1.0000000000000000        2.6679689245100962        0.0000000000000000     
   1.0000000000000000        3.3339844622550476        0.0000000000000000     
   1.0000000000000000        4.0000000000000000        0.0000000000000000     
   1.0000000000000000        3.7711308742777909        1.3336311068165834     
   1.0000000000000000        3.1107140354655871        2.5146487209066399     
   1.0000000000000000        2.6683179691000261        2.9799461766578790     
   1.0000000000000000        2.1805973167202803        3.3533558329399393     
   1.0000000000000000        1.6194874778866160        3.6574937196075195     
   1.0000000000000000        1.1672909850426805        3.8258896685918806     
   1.0000000000000000       0.51806554561856599        3.9663091269394193     
   1.0000000000000000      -0.25444727498984593        3.9918988694918416     
   1.0000000000000000      -0.91733554236921655        3.8933912599051967     
   1.0000000000000000       -1.3733248835733958        3.7568575650612734     
   1.0000000000000000       -2.0154840777118617        3.4551156178180151     
   1.0000000000000000       -2.5444613307995176        3.0863759550751344     
   1.0000000000000000       -2.9653117032368379        2.6845719403001000     
   1.0000000000000000       -3.3120498922068387        2.2428387172359647     
   2.0000000000000000       -3.1636651158779312       0.79207043734731086     
   2.0000000000000000       -2.4616905779590672       0.76242086257606667     
   2.0000000000000000       -1.7405470499100304       0.75508483235012858     
   2.0000000000000000      -0.99976019287657458       0.75296545169992901     
   2.0000000000000000      -0.25024277246266502       0.75231233943146381     
   2.0000000000000000       0.50124211328620949       0.75222566186445905     
   2.0000000000000000        1.2484416090131436       0.74353716476260279     
   2.0000000000000000        1.9630951496412512       0.69490916084755316     
   2.0000000000000000        2.4868043465067204       0.59261245340220869     
   2.0000000000000000       -3.0627406667751185        1.5121622899399692     
   2.0000000000000000       -2.4424798087304462        1.4940938143722049     
   2.0000000000000000       -1.7432647978398907        1.5045402378326842     
   2.0000000000000000       -1.0033587759639555        1.5053018900602946     
   2.0000000000000000      -0.25206227291922667        1.5058506482138296     
   2.0000000000000000       0.50344926968475900        1.5070510149394745     
   2.0000000000000000        1.2621106431464855        1.5031943226348683     
   2.0000000000000000        2.0081873164990598        1.4241886877510905     
   2.0000000000000000        2.8349119217145828        1.0940232838302766     
   2.0000000000000000       -2.9938922042503915        1.9984806925778404     
   2.0000000000000000       -2.4958293887645104        2.2462715100265536     
   2.0000000000000000       -1.7471238124244282        2.2296741468313503     
   2.0000000000000000       -1.0133974648168826        2.2568212606152245     
   2.0000000000000000      -0.25511031673541151        2.2545399563052739     
   2.0000000000000000       0.50302134528471443        2.2548611863712407     
   2.0000000000000000        1.2625642902137215        2.2687082823116445     
   2.0000000000000000        2.1125745476890105        2.3243563265631466     
   2.0000000000000000        2.7239635052743489        1.9836603318335031     
   2.0000000000000000       -2.2786446343975113        2.7705851044125818     
   2.0000000000000000       -1.8036600809022834        2.8790541457167311     
   2.0000000000000000       -1.0307524470401241        3.0816163178735692     
   2.0000000000000000      -0.23475089516061134        2.9427059206507189     
   2.0000000000000000       0.47985599345132302        2.9376956608902596     
   2.0000000000000000        1.2541824033753273        3.0652592574167015     
   2.0000000000000000        1.8543494925072019        2.9368744302571463     
   2.0000000000000000      -0.69959008138990719        3.5367301456570379     
   2.0000000000000000      -0.20529135420386790        3.5015165044779510     
   2.0000000000000000       0.45551410301892953        3.4886903219177325     
   2.0000000000000000       0.94553622216009880        3.5022641647979662     
   2.0000000000000000       -3.6271968973400970        1.6862510690660435     
   2.0000000000000000       -3.9056873651996509       0.86348491898805591     
   2.0000000000000000       -4.0000000000000000        4.8985871965894128E-016
   2.0000000000000000       -3.2441405989622885        0.0000000000000000     
   2.0000000000000000       -2.4882811979245769        0.0000000000000000     
   2.0000000000000000       -1.7499999421307466        0.0000000000000000     
   2.0000000000000000      -0.99999998451936278        0.0000000000000000     
   2.0000000000000000      -0.25000005786925339        0.0000000000000000     
   2.0000000000000000       0.50000003857950226        0.0000000000000000     
   2.0000000000000000        1.2500000578692543        0.0000000000000000     
   2.0000000000000000        2.0000003268507918        0.0000000000000000     
   2.0000000000000000        2.6679689245100962        0.0000000000000000     
   2.0000000000000000        3.3339844622550476        0.0000000000000000     
   2.0000000000000000        4.0000000000000000        0.0000000000000000     
   2.0000000000000000        3.7711308742777909        1.3336311068165834     
   2.0000000000000000        3.1107140354655871        2.5146487209066399     
   2.0000000000000000        2.6683179691000261        2.9799461766578790     
   2.0000000000000000        2.1805973167202803        3.3533558329399393     
   2.0000000000000000        1.6194874778866160        3.6574937196075195     
   2.0000000000000000        1.1672909850426805        3.8258896685918806     
   2.0000000000000000       0.51806554561856599        3.9663091269394193     
   2.0000000000000000      -0.25444727498984593        3.9918988694918416     
   2.0000000000000000      -0.91733554236921655        3.8933912599051967     
   2.0000000000000000       -1.3733248835733958        3.7568575650612734     
   2.0000000000000000       -2.0154840777118617        3.4551156178180151     
   2.0000000000000000       -2.5444613307995176        3.0863759550751344     
   2.0000000000000000       -2.9653117032368379        2.6845719403001000     
   2.0000000000000000       -3.3120498922068387        2.2428387172359647     
   3.0000000000000000       -3.1636651158779312       0.79207043734731086     
   3.0000000000000000       -2.4616905779590672       0.76242086257606667     
   3.0000000000000000       -1.7405470499100304       0.75508483235012858     
   3.0000000000000000      -0.99976019287657458       0.75296545169992901     
   3.0000000000000000      -0.25024277246266502       0.75231233943146381     
   3.0000000000000000       0.50124211328620949       0.75222566186445905     
   3.0000000000000000        1.2484416090131436       0.74353716476260279     
   3.0000000000000000        1.9630951496412512       0.69490916084755316     
   3.0000000000000000        2.4868043465067204       0.59261245340220869     
   3.0000000000000000       -3.0627406667751185        1.5121622899399692     
   3.0000000000000000       -2.4424798087304462        1.4940938143722049     
   3.0000000000000000       -1.7432647978398907        1.5045402378326842     
   3.0000000000000000       -1.0033587759639555        1.5053018900602946     
   3.0000000000000000      -0.25206227291922667        1.5058506482138296     
   3.0000000000000000       0.50344926968475900        1.5070510149394745     
   3.0000000000000000        1.2621106431464855        1.5031943226348683     
   3.0000000000000000        2.0081873164990598        1.4241886877510905     
   3.0000000000000000        2.8349119217145828        1.0940232838302766     
   3.0000000000000000       -2.9938922042503915        1.9984806925778404     
   3.0000000000000000       -2.4958293887645104        2.2462715100265536     
   3.0000000000000000       -1.7471238124244282        2.2296741468313503     
   3.0000000000000000       -1.0133974648168826        2.2568212606152245     
   3.0000000000000000      -0.25511031673541151        2.2545399563052739     
   3.0000000000000000       0.50302134528471443        2.2548611863712407     
   3.0000000000000000        1.2625642902137215        2.2687082823116445     
   3.0000000000000000        2.1125745476890105        2.3243563265631466     
   3.0000000000000000        2.7239635052743489        1.9836603318335031     
   3.0000000000000000       -2.2786446343975113        2.7705851044125818     
   3.0000000000000000       -1.8036600809022834        2.8790541457167311     
   3.0000000000000000       -1.0307524470401241        3.0816163178735692     
   3.0000000000000000      -0.23475089516061134        2.9427059206507189     
   3.0000000000000000       0.47985599345132302        2.9376956608902596     
   3.0000000000000000        1.2541824033753273        3.0652592574167015     
   3.0000000000000000        1.8543494925072019        2.9368744302571463     
   3.0000000000000000      -0.69959008138990719        3.5367301456570379     
   3.0000000000000000      -0.20529135420386790        3.5015165044779510     
   3.0000000000000000       0.45551410301892953        3.4886903219177325     
   3.0000000000000000       0.94553622216009880        3.5022641647979662     
   3.0000000000000000       -3.6271968973400970        1.6862510690660435     
   3.0000000000000000       -3.9056873651996509       0.86348491898805591     
   3.0000000000000000       -4.0000000000000000        4.8985871965894128E-016
   3.0000000000000000       -3.2441405989622885        0.0000000000000000     
   3.0000000000000000       -2.4882811979245769        0.0000000000000000     
   3.0000000000000000       -1.7499999421307466        0.0000000000000000     
   3.0000000000000000      -0.99999998451936278        0.0000000000000000     
   3.0000000000000000      -0.25000005786925339        0.0000000000000000     
   3.0000000000000000       0.50000003857950226        0.0000000000000000     
   3.0000000000000000        1.2500000578692543        0.0000000000000000     
   3.0000000000000000        2.0000003268507918        0.0000000000000000     
   3.0000000000000000        2.6679689245100962        0.0000000000000000     
   3.0000000000000000        3.3339844622550476        0.0000000000000000     
   3.0000000000000000        4.0000000000000000        0.0000000000000000     
   3.0000000000000000        3.7711308742777909        1.3336311068165834     
   3.0000000000000000        3.1107140354655871        2.5146487209066399     
   3.0000000000000000        2.6683179691000261        2.9799461766578790     
   3.0000000000000000        2.1805973167202803        3.3533558329399393     
   3.0000000000000000        1.6194874778866160        3.6574937196075195     
   3.0000000000000000        1.1672909850426805        3.8258896685918806     
   3.0000000000000000       0.51806554561856599        3.9663091269394193     
   3.0000000000000000      -0.25444727498984593        3.9918988694918416     
   3.0000000000000000      -0.91733554236921655        3.8933912599051967     
   3.0000000000000000       -1.3733248835733958        3.7568575650612734     
   3.0000000000000000       -2.0154840777118617        3.4551156178180151     
   3.0000000000000000       -2.5444613307995176        3.0863759550751344     
   3.0000000000000000       -2.9653117032368379        2.6845719403001000     
   3.0000000000000000       -3.3120498922068387        2.2428387172359647     
   4.0000000000000000       -3.1636651158779312       0.79207043734731086     
   4.0000000000000000       -2.4616905779590672       0.76242086257606667     
   4.0000000000000000       -1.7405470499100304       0.75508483235012858     
   4.0000000000000000      -0.99976019287657458       0.75296545169992901     
   4.0000000000000000      -0.25024277246266502       0.75231233943146381     
   4.0000000000000000       0.50124211328620949       0.75222566186445905     
   4.0000000000000000        1.2484416090131436       0.74353716476260279     
   4.0000000000000000        1.9630951496412512       0.69490916084755316     
   4.0000000000000000        2.4868043465067204       0.59261245340220869     
   4.0000000000000000       -3.0627406667751185        1.5121622899399692     
   4.0000000000000000       -2.4424798087304462        1.4940938143722049     
   4.0000000000000000       -1.7432647978398907        1.5045402378326842     
   4.0000000000000000       -1.0033587759639555        1.5053018900602946     
   4.0000000000000000      -0.25206227291922667        1.5058506482138296     
   4.0000000000000000       0.50344926968475900        1.5070510149394745     
   4.0000000000000000        1.2621106431464855        1.5031943226348683     
   4.0000000000000000        2.0081873164990598        1.4241886877510905     
   4.0000000000000000        2.8349119217145828        1.0940232838302766     
   4.0000000000000000       -2.9938922042503915        1.9984806925778404     
   4.0000000000000000       -2.4958293887645104        2.2462715100265536     
   4.0000000000000000       -1.7471238124244282        2.2296741468313503     
   4.0000000000000000       -1.0133974648168826        2.2568212606152245     
   4.0000000000000000      -0.25511031673541151        2.2545399563052739     
   4.0000000000000000       0.50302134528471443        2.2548611863712407     
   4.0000000000000000        1.2625642902137215        2.2687082823116445     
   4.0000000000000000        2.1125745476890105        2.3243563265631466     
   4.0000000000000000        2.7239635052743489        1.9836603318335031     
   4.0000000000000000       -2.2786446343975113        2.7705851044125818     
   4.0000000000000000       -1.8036600809022834        2.8790541457167311     
   4.0000000000000000       -1.0307524470401241        3.0816163178735692     
   4.0000000000000000      -0.23475089516061134        2.9427059206507189     
   4.0000000000000000       0.47985599345132302        2.9376956608902596     
   4.0000000000000000        1.2541824033753273        3.0652592574167015     
   4.0000000000000000        1.8543494925072019        2.9368744302571463     
   4.0000000000000000      -0.69959008138990719        3.5367301456570379     
   4.0000000000000000      -0.20529135420386790        3.5015165044779510     
   4.0000000000000000       0.45551410301892953        3.4886903219177325     
   4.0000000000000000       0.94553622216009880        3.5022641647979662     
   4.0000000000000000       -3.6271968973400970        1.6862510690660435     
   4.0000000000000000       -3.9056873651996509       0.86348491898805591     
   4.0000000000000000       -4.0000000000000000        4.8985871965894128E-016
   4.0000000000000000       -3.2441405989622885        0.0000000000000000     
   4.0000000000000000       -2.4882811979245769        0.0000000000000000     
   4.0000000000000000       -1.7499999421307466        0.0000000000000000     
   4.0000000000000000      -0.99999998451936278        0.0000000000000000     
   4.0000000000000000      -0.25000005786925339        0.0000000000000000     
   4.0000000000000000       0.50000003857950226        0.0000000000000000     
   4.0000000000000000        1.2500000578692543        0.0000000000000000     
   4.0000000000000000        2.0000003268507918        0.0000000000000000     
   4.0000000000000000        2.6679689245100962        0.0000000000000000     
   4.0000000000000000        3.3339844622550476        0.0000000000000000     
   4.0000000000000000        4.0000000000000000        0.0000000000000000     
   4.0000000000000000        3.7711308742777909        1.3336311068165834     
   4.0000000000000000        3.1107140354655871        2.5146487209066399     
   4.0000000000000000        2.6683179691000261        2.9799461766578790     
   4.0000000000000000        2.1805973167202803        3.3533558329399393     
   4.0000000000000000        1.6194874778866160        3.6574937196075195     
   4.0000000000000000        1.1672909850426805        3.8258896685918806     
   4.0000000000000000       0.51806554561856599        3.9663091269394193     
   4.0000000000000000      -0.25444727498984593        3.9918988694918416     
   4.0000000000000000      -0.91733554236921655        3.8933912599051967     
   4.0000000000000000       -1.3733248835733958        3.7568575650612734     
   4.0000000000000000       -2.0154840777118617        3.4551156178180151     
   4.0000000000000000       -2.5444613307995176        3.0863759550751344     
   4.0000000000000000       -2.9653117032368379        2.6845719403001000     
   4.0000000000000000       -3.3120498922068387        2.2428387172359647     
      1        2       11       10       67       68       77       76
      2        3       12       11       68       69       78       77
      3        4       13       12       69       70       79       78
      4        5       14       13       70       71       80       79
      5        6       15       14       71       72       81       80
      6        7       16       15       72       73       82       81
      7        8       17       16       73       74       83       82
      8        9       18       17       74       75       84       83
     10       11       20       19       76       77       86       85
     11       12       21       20       77       78       87       86
     12       13       22       21       78       79       88       87
     13       14       23       22       79       80       89       88
     14       15       24       23       80       81       90       89
     15       16       25       24       81       82       91       90
     16       17       26       25       82       83       92       91
     17       18       27       26       83       84       93       92
     20       21       29       28       86       87       95       94
     21       22       30       29       87       88       96       95
     22       23       31       30       88       89       97       96
     23       24       32       31       89       90       98       97
     24       25       33       32       90       91       99       98
     25       26       34       33       91       92      100       99
     30       31       36       35       96       97      102      101
     31       32       37       36       97       98      103      102
     32       33       38       37       98       99      104      103
     10       39       40        1       76      105      106       67
      1       40       41       42       67      106      107      108
      1       42       43        2       67      108      109       68
      2       43       44        3       68      109      110       69
      3       44       45        4       69      110      111       70
      4       45       46        5       70      111      112       71
      5       46       47        6       71      112      113       72
      6       47       48        7       72      113      114       73
      7       48       49        8       73      114      115       74
      8       49       50        9       74      115      116       75
      9       50       51       18       75      116      117       84
     18       51       52       53       84      117      118      119
     18       53       54       27       84      119      120       93
     27       54       55       26       93      120      121       92
     26       55       56       34       92      121      122      100
     34       56       57       33      100      122      123       99
     33       57       58       38       99      123      124      104
     38       58       59       37      104      124      125      103
     37       59       60       36      103      125      126      102
     36       60       61       35      102      126      127      101
     35       61       62       30      101      127      128       96
     30       62       63       29       96      128      129       95
     29       63       64       28       95      129      130       94
     28       64       65       20       94      130      131       86
     20       65       66       19       86      131      132       85
     19       66       39       10       85      132      105       76
     67       68       77       76      133      134      143      142
     68       69       78       77      134      135      144      143
     69       70       79       78      135      136      145      144