 VARIABLES = "X", "Y", "Z", "Material ID"
 ZONE F=FEPOINT, ET=QUADRILATERAL, N=         473 E=         426
  -3.7343689016619432       0.25477924711674538        0.0000000000000000                1
  -3.4902178418347858       0.25361999764899779        0.0000000000000000                1
  -3.2469806605265443       0.25151594440376163        0.0000000000000000                1
  -2.9994530806330402       0.25041273102473727        0.0000000000000000                1
  -2.7500110874490877       0.25007736582833595        0.0000000000000000                1
  -2.5000940695995379       0.25001066137270350        0.0000000000000000                1
  -2.2501011032949880       0.25000110862847247        0.0000000000000000                1
  -2.0001013164818691       0.25000008700843329        0.0000000000000000                1
  -1.7501012968498821       0.25000000535963141        0.0000000000000000                1
  -1.5001012938207072       0.25000000026773023        0.0000000000000000                1
  -1.2501012936076699       0.25000000001058398        0.0000000000000000                1
  -1.0001012935980254       0.25000000000035955        0.0000000000000000                1
 -0.75010129359768296       0.25000000000001349        0.0000000000000000                1
 -0.50010129359766997       0.25000000000000067        0.0000000000000000                1
 -0.25010129359766942       0.25000000000000000        0.0000000000000000                1
  -1.0129359766943328E-004  0.25000000000000000        0.0000000000000000                1
  0.24989870640233061       0.25000000000000000        0.0000000000000000                1
  0.49989870640233125       0.25000000000000067        0.0000000000000000                1
  0.74989870640234435       0.25000000000001349        0.0000000000000000                1
  0.99989870640268663       0.25000000000035955        0.0000000000000000                1
   1.2498987064123421       0.25000000001058420        0.0000000000000000                1
   1.4998987066265439       0.25000000026776981        0.0000000000000000                1
   1.7498987097323322       0.25000000536381234        0.0000000000000000                1
   1.9998987325596258       0.25000008727836315        0.0000000000000000                1
   2.2498986057621595       0.25000111962441129        0.0000000000000000                1
   2.4998931105839692       0.25001094979220223        0.0000000000000000                1
   2.7498284843721805       0.25008230220238864        0.0000000000000000                1
   2.9994216402803229       0.25046856707200710        0.0000000000000000                1
   3.2478758811939574       0.25194287429090728        0.0000000000000000                1
   3.4963475200906791       0.25595922065281906        0.0000000000000000                1
   3.7436845352731325       0.26542579318020465        0.0000000000000000                1
  -3.7252498929033644       0.51237205605133229        0.0000000000000000                1
  -3.4881806803405753       0.50550012839965586        0.0000000000000000                1
  -3.2463074403404950       0.50205721553940474        0.0000000000000000                1
  -2.9993377178359957       0.50061339489780432        0.0000000000000000                1
  -2.7499755860069106       0.50014206999878263        0.0000000000000000                1
  -2.5000389085405956       0.50002421208259917        0.0000000000000000                1
  -2.2500379483187229       0.50000301381284085        0.0000000000000000                1
  -2.0000367538815262       0.50000028533482244        0.0000000000000000                1
  -1.7500365661616113       0.50000002104375862        0.0000000000000000                1
  -1.5000365487798977       0.50000000120669197        0.0000000000000000                1
  -1.2500365476804505       0.50000000005893819        0.0000000000000000                1
  -1.0000365476249427       0.50000000000304057        0.0000000000000000                1
 -0.75003654762207872       0.50000000000018696        0.0000000000000000                1
 -0.50003654762190231       0.50000000000001144        0.0000000000000000                1
 -0.25003654762189170       0.50000000000000067        0.0000000000000000                1
  -3.6547621891034553E-005  0.50000000000000000        0.0000000000000000                1
  0.24996345237810963       0.50000000000000067        0.0000000000000000                1
  0.49996345237812029       0.50000000000001144        0.0000000000000000                1
  0.74996345237829665       0.50000000000018696        0.0000000000000000                1
  0.99996345238116069       0.50000000000304057        0.0000000000000000                1
   1.2499634524366845       0.50000000005893863        0.0000000000000000                1
   1.4999634535378350       0.50000000120675292        0.0000000000000000                1
   1.7499634710278529       0.50000002105005736        0.0000000000000000                1
   1.9999636630818465       0.50000028573047506        0.0000000000000000                1
   2.2499649688058123       0.50000302941195818        0.0000000000000000                1
   2.4999677832789629       0.50002460536058557        0.0000000000000000                1
   2.7499246516955589       0.50014847808872209        0.0000000000000000                1
   2.9994310412336747       0.50068138437478471        0.0000000000000000                1
   3.2470633930140518       0.50253148276659731        0.0000000000000000                1
   3.4900839788650635       0.50771305069798622        0.0000000000000000                1
   3.7269904459830374       0.51914155587328525        0.0000000000000000                1
  -3.7081665314119889       0.76307515294681361        0.0000000000000000                1
  -3.4855399491943380       0.75399853290240226        0.0000000000000000                1
  -3.2474880329991747       0.75180886526969148        0.0000000000000000                1
  -3.0001130893396226       0.75086431289327660        0.0000000000000000                1
  -2.7501628772064071       0.75026375055060635        0.0000000000000000                1
  -2.5000521767563040       0.75005454924117887        0.0000000000000000                1
  -2.2500164505166520       0.75000820508691657        0.0000000000000000                1
  -2.0000098668908262       0.75000091847679029        0.0000000000000000                1
  -1.7500090533545272       0.75000007784897982        0.0000000000000000                1
  -1.5000089814625739       0.75000000553639545        0.0000000000000000                1
  -1.2500089762955908       0.75000000039770642        0.0000000000000000                1
  -1.0000089759266944       0.75000000003182021        0.0000000000000000                1
 -0.75000897589723181       0.75000000000250311        0.0000000000000000                1
 -0.50000897589491577       0.75000000000018763        0.0000000000000000                1
 -0.25000897589474214       0.75000000000001399        0.0000000000000000                1
  -8.9758947286397761E-006  0.75000000000000266        0.0000000000000000                1
  0.24999102410528490       0.75000000000001399        0.0000000000000000                1
  0.49999102410545843       0.75000000000018763        0.0000000000000000                1
  0.74999102410777452       0.75000000000250311        0.0000000000000000                1
  0.99999102413723739       0.75000000003182021        0.0000000000000000                1
   1.2499910245061490       0.75000000039770665        0.0000000000000000                1
   1.4999910296746366       0.75000000553645452        0.0000000000000000                1
   1.7499911016567946       0.75000007785483958        0.0000000000000000                1
   1.9999919185502097       0.75000091882781483        0.0000000000000000                1
   2.2499985808482892       0.75000821816301544        0.0000000000000000                1
   2.5000354705280037       0.75005485688178974        0.0000000000000000                1
   2.7501569051784394       0.75026834797996722        0.0000000000000000                1
   3.0001662104092688       0.75090786415722399        0.0000000000000000                1
   3.2477001731648283       0.75206675606732554        0.0000000000000000                1
   3.4859183269841347       0.75489659559534072        0.0000000000000000                1
   3.7084867687915546       0.76425058091579801        0.0000000000000000                1
  -3.6916741069275250       0.99504275601856196        0.0000000000000000                1
  -3.4898882681605525       0.99747614849583854        0.0000000000000000                1
  -3.2529088957174825        1.0030006316626896        0.0000000000000000                1
  -3.0016637424836046        1.0016679031206315        0.0000000000000000                1
  -2.7505844827372394        1.0005606116086982        0.0000000000000000                1
  -2.5001433489820815        1.0001345207865362        0.0000000000000000                1
  -2.2500253592703037        1.0000229843131432        0.0000000000000000                1
  -2.0000044339142455        1.0000029015564593        0.0000000000000000                1
  -1.7500017689629181        1.0000003031380695        0.0000000000000000                1
  -1.5000014913805915        1.0000000306950241        0.0000000000000000                1
  -1.2500014635287424        1.0000000032500280        0.0000000000000000                1
  -1.0000014605871534        1.0000000003318870        0.0000000000000000                1
 -0.75000146028709003        1.0000000000319715        0.0000000000000000                1
 -0.50000146025831005        1.0000000000030598        0.0000000000000000                1
 -0.25000146025563069        1.0000000000003773        0.0000000000000000                1
  -1.4602552740131993E-006   1.0000000000001132        0.0000000000000000                1
  0.24999853974508265        1.0000000000003773        0.0000000000000000                1
  0.49999853974776204        1.0000000000030598        0.0000000000000000                1
  0.74999853977654185        1.0000000000319715        0.0000000000000000                1
  0.99999854007660582        1.0000000003318870        0.0000000000000000                1
   1.2499985430182052        1.0000000032500282        0.0000000000000000                1
   1.4999985708709946        1.0000000306950665        0.0000000000000000                1
   1.7499988485049147        1.0000003031420230        0.0000000000000000                1
   2.0000015151758985        1.0000029017772689        0.0000000000000000                1
   2.2500224755321665        1.0000229918706092        0.0000000000000000                1
   2.5001408946495585        1.0001346809943032        0.0000000000000000                1
   2.7505850796475708        1.0005627106539750        0.0000000000000000                1
   3.0016757284638458        1.0016846200289260        0.0000000000000000                1
   3.2529426230649396        1.0030778145853791        0.0000000000000000                1
   3.4899390090917426       0.99765456675370068        0.0000000000000000                1
   3.6917138880882070       0.99522532624867432        0.0000000000000000                1
  -3.6903493722955889        1.1574461143786952        0.0000000000000000                1
  -3.5367585792325706        1.2628264256870894        0.0000000000000000                1
  -3.2572708898935612        1.2564807977433847        0.0000000000000000                1
  -3.0035675985920305        1.2530939247217481        0.0000000000000000                1
  -2.7513874727657996        1.2512209104178904        0.0000000000000000                1
  -2.5003428108654391        1.2503200156193159        0.0000000000000000                1
  -2.2500631206605286        1.2500607114941462        0.0000000000000000                1
  -2.0000098731365408        1.2500094574391758        0.0000000000000000                1
  -1.7500015594435183        1.2500013746381682        0.0000000000000000                1
  -1.5000003542366751        1.2500001968807180        0.0000000000000000                1
  -1.2500001815217610        1.2500000263540545        0.0000000000000000                1
  -1.0000001584177787        1.2500000032738618        0.0000000000000000                1
 -0.75000015556531308        1.2500000004014546        0.0000000000000000                1
 -0.50000015522651409        1.2500000000592790        0.0000000000000000                1
 -0.25000015517832619        1.2500000000110549        0.0000000000000000                1
  -1.5516806678286475E-007   1.2500000000039384        0.0000000000000000                1
  0.24999984484219265        1.2500000000110549        0.0000000000000000                1
  0.49999984489038046        1.2500000000592790        0.0000000000000000                1
  0.74999984522917962        1.2500000004014546        0.0000000000000000                1
  0.99999984808164510        1.2500000032738618        0.0000000000000000                1
   1.2499998711856324        1.2500000263540547        0.0000000000000000                1
   1.5000000439009764        1.2500001968807415        0.0000000000000000                1
   1.7500012491286174        1.2500013746401806        0.0000000000000000                1
   2.0000095634125579        1.2500094575411336        0.0000000000000000                1
   2.2500628207024915        1.2500607145914875        0.0000000000000000                1
   2.5003426015689638        1.2503200722100249        0.0000000000000000                1
   2.7513877093297641        1.2512215239646911        0.0000000000000000                1
   3.0035690459884079        1.2530977404399020        0.0000000000000000                1
   3.2572741382061960        1.2564935561628217        0.0000000000000000                1
   3.5367627107880999        1.2628483642635138        0.0000000000000000                1
   3.6903526604340806        1.1574688632019201        0.0000000000000000                1
  -3.4806112559509756        1.5199781065385720        0.0000000000000000                1
  -3.2574556057227211        1.5066858939140575        0.0000000000000000                1
  -3.0075632445021432        1.5063002454990360        0.0000000000000000                1
  -2.7524953149483298        1.5024137091820597        0.0000000000000000                1
  -2.5006894396077186        1.5006792889240008        0.0000000000000000                1
  -2.2501658973659477        1.5001609950647496        0.0000000000000000                1
  -2.0000355975209034        1.5000344944107289        0.0000000000000000                1
  -1.7500070104779140        1.5000068819714956        0.0000000000000000                1
  -1.5000012407882830        1.5000012301022234        0.0000000000000000                1
  -1.2500002075645784        1.5000001990795739        0.0000000000000000                1
  -1.0000000413689971        1.5000000311487967        0.0000000000000000                1
 -0.75000001619977585        1.5000000056053275        0.0000000000000000                1
 -0.50000001186675369        1.5000000012024248        0.0000000000000000                1
 -0.25000001093843244        1.5000000002688008        0.0000000000000000                1
  -1.0693016408771146E-008   1.5000000001002036        0.0000000000000000                1
  0.24999998955239955        1.5000000002688008        0.0000000000000000                1
  0.49999999048072069        1.5000000012024248        0.0000000000000000                1
  0.74999999481374302        1.5000000056053275        0.0000000000000000                1
   1.0000000199829644        1.5000000311487967        0.0000000000000000                1
   1.2500001861785477        1.5000001990795739        0.0000000000000000                1
   1.5000012194023953        1.5000012301022332        0.0000000000000000                1
   1.7500069890978160        1.5000068819722703        0.0000000000000000                1
   2.0000355762715025        1.5000344944451238        0.0000000000000000                1
   2.2501658777070626        1.5001609959508151        0.0000000000000000                1
   2.5006894299336362        1.5006793020665585        0.0000000000000000                1
   2.7524953404858525        1.5024138185628118        0.0000000000000000                1
   3.0075633435715261        1.5063007413263243        0.0000000000000000                1
   3.2574557901046171        1.5066871645591604        0.0000000000000000                1
   3.4806114286681913        1.5199795372388714        0.0000000000000000                1
  -3.4632154150310837        1.6820916383201603        0.0000000000000000                1
  -3.2937171064346100        1.7788503213941198        0.0000000000000000                1
  -3.0079929122003364        1.7604239377000479        0.0000000000000000                1
  -2.7533740907212576        1.7537920440662274        0.0000000000000000                1
  -2.5014327809536478        1.7514016068555127        0.0000000000000000                1
  -2.2504810433705957        1.7504585454435448        0.0000000000000000                1
  -2.0001365544929595        1.7501328931477504        0.0000000000000000                1
  -1.7500325995058503        1.7500325990770544        0.0000000000000000                1
  -1.5000068823456512        1.7500069998988674        0.0000000000000000                1
  -1.2500013747950209        1.7500014046508952        0.0000000000000000                1
  -1.0000003028810998        1.7500003096004728        0.0000000000000000                1
 -0.75000007710454064        1.7500000789868453        0.0000000000000000                1
 -0.50000002009808875        1.7500000203801367        0.0000000000000000                1
 -0.25000000484606094        1.7500000048272368        0.0000000000000000                1
  -4.7455744894064827E-010   1.7500000018745745        0.0000000000000000                1
  0.25000000389694593        1.7500000048272368        0.0000000000000000                1
  0.50000001914897385        1.7500000203801367        0.0000000000000000                1
  0.75000007615542597        1.7500000789868453        0.0000000000000000                1
   1.0000003019319847        1.7500003096004728        0.0000000000000000                1
   1.2500013738459066        1.7500014046508952        0.0000000000000000                1
   1.5000068813965699        1.7500069998988708        0.0000000000000000                1
   1.7500325985578167        1.7500325990772760        0.0000000000000000                1
   2.0001365535617590        1.7501328931559652        0.0000000000000000                1
   2.2504810425713972        1.7504585456118027        0.0000000000000000                1
   2.5014327807287851        1.7514016087200821        0.0000000000000000                1
   2.7533740920036389        1.7537920550900310        0.0000000000000000                1
   3.0079929159094245        1.7604239757352924        0.0000000000000000                1
   3.2937171119508015        1.7788503929865414        0.0000000000000000                1
   3.4632154195371703        1.6820917098303778        0.0000000000000000                1
  -3.2195082572101539        2.0281851406763209        0.0000000000000000                1
  -3.0015004311419764        2.0074671186234787        0.0000000000000000                1
  -2.7559536126657722        2.0058044455979998        0.0000000000000000                1
  -2.5032587565318045        2.0029724546960379        0.0000000000000000                1
  -2.2514088220121256        2.0013423561151185        0.0000000000000000                1
  -2.0004662804092552        2.0004662804831841        0.0000000000000000                1
  -1.7501328928001942        2.0001365544020508        0.0000000000000000                1
  -1.5000344924889952        2.0000355889767727        0.0000000000000000                1
  -1.2500094503573378        2.0000097262031762        0.0000000000000000                1
  -1.0000028834157111        2.0000029955760787        0.0000000000000000                1
 -0.75000088581111801        2.0000009317047640        0.0000000000000000                1
 -0.50000024521614528        2.0000002574818634        0.0000000000000000                1
 -0.25000005823120441        2.0000000627261287        0.0000000000000000                1
  -1.3416858756302704E-011   2.0000000232278743        0.0000000000000000                1
  0.25000005820437071        2.0000000627261287        0.0000000000000000                1
  0.50000024518931152        2.0000002574818634        0.0000000000000000                1
  0.75000088578428437        2.0000009317047640        0.0000000000000000                1
   1.0000028833888770        2.0000029955760787        0.0000000000000000                1
   1.2500094503305037        2.0000097262031762        0.0000000000000000                1
   1.5000344924621665        2.0000355889767736        0.0000000000000000                1
   1.7501328927734743        2.0001365544020961        0.0000000000000000                1
   2.0004662803835833        2.0004662804844875        0.0000000000000000                1
   2.2514088219918711        2.0013423561343942        0.0000000000000000                1
   2.5032587565282380        2.0029724548408967        0.0000000000000000                1
   2.7559536126937525        2.0058044462358517        0.0000000000000000                1
   3.0015004312045659        2.0074671203096082        0.0000000000000000                1
   3.2195082572708138        2.0281851426255906        0.0000000000000000                1
  -3.1890084397993821        2.1822865064498442        0.0000000000000000                1
  -3.0239287133826482        2.2667939289066732        0.0000000000000000                1
  -2.7600834931652534        2.2574462154141854        0.0000000000000000                1
  -2.5077677372402172        2.2570297881720793        0.0000000000000000                1
  -2.2533954847981561        2.2533954848432267        0.0000000000000000                1
  -2.0013423557480570        2.2514088223684507        0.0000000000000000                1
  -1.7504585417665115        2.2504810467297780        0.0000000000000000                1
  -1.5001609711857737        2.2501659125934292        0.0000000000000000                1
  -1.2500606096164217        2.2500630815236669        0.0000000000000000                1
  -1.0000226910628285        2.2500242493262856        0.0000000000000000                1
 -0.75000762930795661        2.2500081903877276        0.0000000000000000                1
 -0.50000226346102883        2.2500023580551836        0.0000000000000000                1
 -0.25000055139984878        2.2500005322946288        0.0000000000000000                1
  -2.3713126460263995E-013   2.2500001357466113        0.0000000000000000                1
  0.25000055139937449        2.2500005322946288        0.0000000000000000                1
  0.50000226346055465        2.2500023580551836        0.0000000000000000                1
  0.75000762930748222        2.2500081903877276        0.0000000000000000                1
   1.0000226910623540        2.2500242493262856        0.0000000000000000                1
   1.2500606096159474        2.2500630815236669        0.0000000000000000                1
   1.5001609711852999        2.2501659125934292        0.0000000000000000                1
   1.7504585417660425        2.2504810467297842        0.0000000000000000                1
   2.0013423557476187        2.2514088223685724        0.0000000000000000                1
   2.2533954847978181        2.2533954848443707        0.0000000000000000                1
   2.5077677372400693        2.2570297881782850        0.0000000000000000                1
   2.7600834931652591        2.2574462154352224        0.0000000000000000                1
   3.0239287133826251        2.2667939289471941        0.0000000000000000                1
   3.1890084397992520        2.1822865064891133        0.0000000000000000                1
  -2.9647844281635605        2.4521833556418136        0.0000000000000000                1
  -2.7854786189276610        2.5300803055884757        0.0000000000000000                1
  -2.5114419968839439        2.5114419968906563        0.0000000000000000                1
  -2.2570297880629400        2.5077677373416956        0.0000000000000000                1
  -2.0029724526630406        2.5032587584996620        0.0000000000000000                1
  -1.7514015825705249        2.5014328052702890        0.0000000000000000                1
  -1.5006791011739746        2.5006896289348517        0.0000000000000000                1
  -1.2503190770272390        2.5003437061831364        0.0000000000000000                1
  -1.0001314477699077        2.5001455283720713        0.0000000000000000                1
 -0.75004790251790221        2.5000514981575730        0.0000000000000000                1
 -0.50001495313954425        2.5000143327864262        0.0000000000000000                1
 -0.25000351272218690        2.5000019246385459        0.0000000000000000                1
  -2.5476300756499535E-015   2.4999995034160198        0.0000000000000000                1
  0.25000351272218180        2.5000019246385459        0.0000000000000000                1
  0.50001495313953903        2.5000143327864262        0.0000000000000000                1
  0.75004790251789699        2.5000514981575730        0.0000000000000000                1
   1.0001314477699024        2.5001455283720713        0.0000000000000000                1
   1.2503190770272341        2.5003437061831364        0.0000000000000000                1
   1.5006791011739693        2.5006896289348517        0.0000000000000000                1
   1.7514015825705198        2.5014328052702890        0.0000000000000000                1
   2.0029724526630357        2.5032587584996673        0.0000000000000000                1
   2.2570297880629355        2.5077677373417315        0.0000000000000000                1
   2.5114419968839377        2.5114419968908028        0.0000000000000000                1
   2.7854786189276508        2.5300803055888550        0.0000000000000000                1
   2.9647844281635494        2.4521833556422599        0.0000000000000000                1
  -2.7160284203391210        2.7160284203392826        0.0000000000000000                1
  -2.5300803055795655        2.7854786189354916        0.0000000000000000                1
  -2.2574462150734114        2.7600834934726226        0.0000000000000000                1
  -2.0058044379473516        2.7559536198434542        0.0000000000000000                1
  -1.7537919374489483        2.7533741956595654        0.0000000000000000                1
  -1.5024127567551318        2.7524962992227553        0.0000000000000000                1
  -1.2512153888327073        2.7513934131193869        0.0000000000000000                1
  -1.0005399804987345        2.7506073300117140        0.0000000000000000                1
 -0.75021423758691508        2.7502166238272103        0.0000000000000000                1
 -0.50006786512882750        2.7500384902320887        0.0000000000000000                1
 -0.25001755199840342        2.7499887449229874        0.0000000000000000                1
  -1.7364581994527842E-017   2.7499837209480233        0.0000000000000000                1
  0.25001755199840331        2.7499887449229874        0.0000000000000000                1
  0.50006786512882739        2.7500384902320887        0.0000000000000000                1
  0.75021423758691497        2.7502166238272103        0.0000000000000000                1
   1.0005399804987345        2.7506073300117140        0.0000000000000000                1
   1.2512153888327073        2.7513934131193869        0.0000000000000000                1
   1.5024127567551318        2.7524962992227553        0.0000000000000000                1
   1.7537919374489483        2.7533741956595654        0.0000000000000000                1
   2.0058044379473516        2.7559536198434542        0.0000000000000000                1
   2.2574462150734114        2.7600834934726231        0.0000000000000000                1
   2.5300803055795655        2.7854786189354934        0.0000000000000000                1
   2.7160284203391210        2.7160284203392853        0.0000000000000000                1
  -2.4521833556314525        2.9647844281725648        0.0000000000000000                1
  -2.2667939282770293        3.0239287139406308        0.0000000000000000                1
  -2.0074671000686193        3.0015004480822478        0.0000000000000000                1
  -1.7604236263818220        3.0079932088909347        0.0000000000000000                1
  -1.5062970465791947        3.0075664716453372        0.0000000000000000                1
  -1.2530730787760820        3.0035901211815346        0.0000000000000000                1
  -1.0015805775084432        3.0017652247492150        0.0000000000000000                1
 -0.75063288233296721        3.0004055438446353        0.0000000000000000                1
 -0.50024002315811578        2.9998427708670574        0.0000000000000000                1
 -0.25009804940996272        2.9998156020843894        0.0000000000000000                1
   0.0000000000000000        2.9998494875212667        0.0000000000000000                1
  0.25009804940996272        2.9998156020843894        0.0000000000000000                1
  0.50024002315811578        2.9998427708670574        0.0000000000000000                1