  TITLE = "SEM hex mesh" 
  VARIABLES = "x","y", "z"
 ZONE I=           6 ,J=           6 ,K=           6 , F=POINT
  -3.1636651158779312       -3.1636651158779312       0.79207043734731086                1
  -3.0966325123159302       -3.0966325123159302       0.78923915489465235                1
  -2.9211388778362144       -2.9211388778362144       0.78182676120184125                1
  -2.7042168160007836       -2.7042168160007836       0.77266453872153629                1
  -2.5287231815210687       -2.5287231815210687       0.76525214502872529                1
  -2.4616905779590672       -2.4616905779590672       0.76242086257606667                1
  -3.1540276885625773       -3.1540276885625773       0.86083309051443990                1
  -3.0877402015770854       -3.0877402015770854       0.85810741178693484                1
  -2.9141973076202516       -2.9141973076202516       0.85097149223591395                1
  -2.6996864936775675       -2.6996864936775675       0.84215101058888286                1
  -2.5261435997207333       -2.5261435997207333       0.83501509103786209                1
  -2.4598561127352423       -2.4598561127352423       0.83228941231035702                1
  -3.1287965762868732       -3.1287965762868732        1.0408560536626044                1
  -3.0644598298242642       -3.0644598298242642        1.0384068490768901                1
  -2.8960240408595674       -2.8960240408595674        1.0319947482260865                1
  -2.6878259558553932       -2.6878259558553932        1.0240689556959095                1
  -2.5193901668906964       -2.5193901668906964        1.0176568548451064                1
  -2.4550534204280865       -2.4550534204280865        1.0152076502593916                1
  -3.0976092063661760       -3.0976092063661760        1.2633766736246752                1
  -3.0356837077963119       -3.0356837077963119        1.2612692098722342                1
  -2.8735606477701241       -2.8735606477701241        1.2557517981382857                1
  -2.6731655248574779       -2.6731655248574779        1.2489319021752698                1
  -2.5110424648312915       -2.5110424648312915        1.2434144904413209                1
  -2.4491169662614274       -2.4491169662614274        1.2413070266888799                1
  -3.0723780940904719       -3.0723780940904719        1.4433996367728401                1
  -3.0124033360434908       -3.0124033360434908        1.4415686471621894                1
  -2.8553873810094399       -2.8553873810094399        1.4367750541284581                1
  -2.6613049870353045       -2.6613049870353045        1.4308498472822966                1
  -2.5042890320012536       -2.5042890320012536        1.4260562542485653                1
  -2.4443142739542720       -2.4443142739542720        1.4242252646379145                1
  -3.0627406667751185       -3.0627406667751185        1.5121622899399692                1
  -3.0035110253046455       -3.0035110253046455        1.5104369040544721                1
  -2.8484458107934776       -2.8484458107934776        1.5059197851625310                1
  -2.6567746647120876       -2.6567746647120876        1.5003363191496428                1
  -2.5017094502009192       -2.5017094502009192        1.4958192002577018                1
  -2.4424798087304462       -2.4424798087304462        1.4940938143722049                1
  -2.9926478289877179       -3.1636651158779312       0.79207043734731086                1
  -2.9272154864386097       -3.0966325123159302       0.78923915489465235                1
  -2.7559113896815188       -2.9211388778362144       0.78182676120184125                1
  -2.5441678812655524       -2.7042168160007836       0.77266453872153629                1
  -2.3728637845084624       -2.5287231815210687       0.76525214502872529                1
  -2.3074314419593538       -2.4616905779590672       0.76242086257606667                1
  -2.9832404747767614       -3.1540276885625773       0.86083309051443990                1
  -2.9185354607287470       -3.0877402015770854       0.85810741178693484                1
  -2.7491355347085062       -2.9141973076202516       0.85097149223591395                1
  -2.5397457107640538       -2.6996864936775675       0.84215101058888286                1
  -2.3703457847438125       -2.5261435997207333       0.83501509103786209                1
  -2.3056407706957991       -2.4598561127352423       0.83228941231035702                1
  -2.9586117017082669       -3.1287965762868732        1.0408560536626044                1
  -2.8958108583971036       -3.0644598298242642        1.0384068490768901                1
  -2.7313961160863198       -2.8960240408595674        1.0319947482260865                1
  -2.5281683180870802       -2.6878259558553932        1.0240689556959095                1
  -2.3637535757762969       -2.5193901668906964        1.0176568548451064                1
  -2.3009527324651327       -2.4550534204280865        1.0152076502593916                1
  -2.9281688639931938       -3.0976092063661760        1.2633766736246752                1
  -2.8677217051535426       -3.0356837077963119        1.2612692098722342                1
  -2.7094689887879713       -2.8735606477701241        1.2557517981382857                1
  -2.5138578737361326       -2.6731655248574779        1.2489319021752698                1
  -2.3556051573705625       -2.5110424648312915        1.2434144904413209                1
  -2.2951579985309114       -2.4491169662614274        1.2413070266888799                1
  -2.9035400909246993       -3.0723780940904719        1.4433996367728401                1
  -2.8449971028218992       -3.0124033360434908        1.4415686471621894                1
  -2.6917295701657848       -2.8553873810094399        1.4367750541284581                1
  -2.5022804810591603       -2.6613049870353045        1.4308498472822966                1
  -2.3490129484030460       -2.5042890320012536        1.4260562542485653                1
  -2.2904699603002450       -2.4443142739542720        1.4242252646379145                1
  -2.8941327367137433       -3.0627406667751185        1.5121622899399692                1
  -2.8363170771120361       -3.0035110253046455        1.5104369040544721                1
  -2.6849537151927727       -2.8484458107934776        1.5059197851625310                1
  -2.4978583105576604       -2.6567746647120876        1.5003363191496428                1
  -2.3464949486383966       -2.5017094502009192        1.4958192002577018                1
  -2.2886792890366894       -2.4424798087304462        1.4940938143722049                1
  -2.5449187592453471       -3.1636651158779312       0.79207043734731086                1
  -2.4836759544188638       -3.0966325123159302       0.78923915489465235                1
  -2.3233402098167555       -2.9211388778362144       0.78182676120184125                1
  -2.1251543302655032       -2.7042168160007836       0.77266453872153629                1
  -1.9648185856633957       -2.5287231815210687       0.76525214502872529                1
  -1.9035757808369123       -2.4616905779590672       0.76242086257606667                1
  -2.5361137442416002       -3.1540276885625773       0.86083309051443990                1
  -2.4755516981301788       -3.0877402015770854       0.85810741178693484                1
  -2.3169982029822407       -2.9141973076202516       0.85097149223591395                1
  -2.1210153049092053       -2.6996864936775675       0.84215101058888286                1
  -1.9624618097612667       -2.5261435997207333       0.83501509103786209                1
  -1.9018997636498467       -2.4598561127352423       0.83228941231035702                1
  -2.5130619156903373       -3.1287965762868732        1.0408560536626044                1
  -2.4542821190330870       -3.0644598298242642        1.0384068490768901                1
  -2.3003946135325970       -2.8960240408595674        1.0319947482260865                1
  -2.1101791958461185       -2.6878259558553932        1.0240689556959095                1
  -1.9562916903456280       -2.5193901668906964        1.0176568548451064                1
  -1.8975118936883772       -2.4550534204280865        1.0152076502593916                1
  -2.4845682885953080       -3.0976092063661760        1.2633766736246752                1
  -2.4279914734162733       -3.0356837077963119        1.2612692098722342                1
  -2.2798714483023388       -2.8735606477701241        1.2557517981382857                1
  -2.0967850284325404       -2.6731655248574779        1.2489319021752698                1
  -1.9486650033186068       -2.5110424648312915        1.2434144904413209                1
  -1.8920881881395721       -2.4491169662614274        1.2413070266888799                1
  -2.4615164600440451       -3.0723780940904719        1.4433996367728401                1
  -2.4067218943191810       -3.0124033360434908        1.4415686471621894                1
  -2.2632678588526947       -2.8553873810094399        1.4367750541284581                1
  -2.0859489193694536       -2.6613049870353045        1.4308498472822966                1
  -1.9424948839029674       -2.5042890320012536        1.4260562542485653                1
  -1.8877003181781031       -2.4443142739542720        1.4242252646379145                1
  -2.4527114450402987       -3.0627406667751185        1.5121622899399692                1
  -2.3985976380304956       -3.0035110253046455        1.5104369040544721                1
  -2.2569258520181803       -2.8484458107934776        1.5059197851625310                1
  -2.0818098940131549       -2.6567746647120876        1.5003363191496428                1
  -1.9401381080008393       -2.5017094502009192        1.4958192002577018                1
  -1.8860243009910365       -2.4424798087304462        1.4940938143722049                1
  -1.9914951935410325       -3.1636651158779312       0.79207043734731086                1
  -1.9354309421340139       -3.0966325123159302       0.78923915489465235                1
  -1.7886528263966197       -2.9211388778362144       0.78182676120184125                1
  -1.6072250977358677       -2.7042168160007836       0.77266453872153629                1
  -1.4604469819984744       -2.5287231815210687       0.76525214502872529                1
  -1.4043827305914554       -2.4616905779590672       0.76242086257606667                1
  -1.9834347107429102       -3.1540276885625773       0.86083309051443990                1
  -1.9279936546297203       -3.0877402015770854       0.85810741178693484                1
  -1.7828470853531997       -2.9141973076202516       0.85097149223591395                1
  -1.6034360590265375       -2.6996864936775675       0.84215101058888286                1
  -1.4582894897500165       -2.5261435997207333       0.83501509103786209                1
  -1.4028484336368277       -2.4598561127352423       0.83228941231035702                1
  -1.9623320928116907       -3.1287965762868732        1.0408560536626044                1
  -1.9085225831593755       -3.0644598298242642        1.0384068490768901                1
  -1.7676474579716461       -2.8960240408595674        1.0319947482260865                1
  -1.5935162269008198       -2.6878259558553932        1.0240689556959095                1
  -1.4526411017130907       -2.5193901668906964        1.0176568548451064                1
  -1.3988315920607743       -2.4550534204280865        1.0152076502593916                1
  -1.9362478225455000       -3.0976092063661760        1.2633766736246752                1
  -1.8844550152272725       -3.0356837077963119        1.2612692098722342                1
  -1.7488596852953786       -2.8735606477701241        1.2557517981382857                1
  -1.5812546400680463       -2.6731655248574779        1.2489319021752698                1
  -1.4456593101361532       -2.5110424648312915        1.2434144904413209                1
  -1.3938665028179258       -2.4491169662614274        1.2413070266888799                1
  -1.9151452046142807       -3.0723780940904719        1.4433996367728401                1
  -1.8649839437569276       -3.0124033360434908        1.4415686471621894                1
  -1.7336600579138250       -2.8553873810094399        1.4367750541284581                1
  -1.5713348079423293       -2.6613049870353045        1.4308498472822966                1
  -1.4400109220992265       -2.5042890320012536        1.4260562542485653                1
  -1.3898496612418729       -2.4443142739542720        1.4242252646379145                1
  -1.9070847218161588       -3.0627406667751185        1.5121622899399692                1
  -1.8575466562526339       -3.0035110253046455        1.5104369040544721                1
  -1.7278543168704052       -2.8484458107934776        1.5059197851625310                1
  -1.5675457692329982       -2.6567746647120876        1.5003363191496428                1
  -1.4378534298507692       -2.5017094502009192        1.4958192002577018                1
  -1.3883153642872443       -2.4424798087304462        1.4940938143722049                1
  -1.5437661237986620       -3.1636651158779312       0.79207043734731086                1
  -1.4918914101142682       -3.0966325123159302       0.78923915489465235                1
  -1.3560816465318561       -2.9211388778362144       0.78182676120184125                1
  -1.1882115467358187       -2.7042168160007836       0.77266453872153629                1
  -1.0524017831534076       -2.5287231815210687       0.76525214502872529                1
  -1.0005270694690136       -2.4616905779590672       0.76242086257606667                1
  -1.5363079802077491       -3.1540276885625773       0.86083309051443990                1
  -1.4850098920311523       -3.0877402015770854       0.85810741178693484                1
  -1.3507097536269339       -2.9141973076202516       0.85097149223591395                1
  -1.1847056531716895       -2.6996864936775675       0.84215101058888286                1
  -1.0504055147674707       -2.5261435997207333       0.83501509103786209                1
 -0.99910742659087504       -2.4598561127352423       0.83228941231035702                1
  -1.5167823067937611       -3.1287965762868732        1.0408560536626044                1
  -1.4669938437953589       -3.0644598298242642        1.0384068490768901                1
  -1.3366459554179233       -2.8960240408595674        1.0319947482260865                1
  -1.1755271046598577       -2.6878259558553932        1.0240689556959095                1
  -1.0451792162824221       -2.5193901668906964        1.0176568548451064                1
 -0.99539075328401894       -2.4550534204280865        1.0152076502593916                1
  -1.4926472471476140       -3.0976092063661760        1.2633766736246752                1
  -1.4447247834900032       -3.0356837077963119        1.2612692098722342                1
  -1.3192621448097457       -2.8735606477701241        1.2557517981382857                1
  -1.1641817947644539       -2.6731655248574779        1.2489319021752698                1
  -1.0387191560841975       -2.5110424648312915        1.2434144904413209                1
 -0.99079669242658652       -2.4491169662614274        1.2413070266888799                1
  -1.4731215737336263       -3.0723780940904719        1.4433996367728401                1
  -1.4267087352542094       -3.0124033360434908        1.4415686471621894                1
  -1.3051983466007351       -2.8553873810094399        1.4367750541284581                1
  -1.1550032462526227       -2.6613049870353045        1.4308498472822966                1
  -1.0334928575991482       -2.5042890320012536        1.4260562542485653                1
 -0.98708001911973087       -2.4443142739542720        1.4242252646379145                1
  -1.4656634301427138       -3.0627406667751185        1.5121622899399692                1
  -1.4198272171710935       -3.0035110253046455        1.5104369040544721                1
  -1.2998264536958131       -2.8484458107934776        1.5059197851625310                1
  -1.1514973526884926       -2.6567746647120876        1.5003363191496428                1
  -1.0314965892132117       -2.5017094502009192        1.4958192002577018                1
 -0.98566037624159142       -2.4424798087304462        1.4940938143722049                1
  -1.3727488369084484       -3.1636651158779312       0.79207043734731086                1
  -1.3224743842369477       -3.0966325123159302       0.78923915489465235                1
  -1.1908541583771608       -2.9211388778362144       0.78182676120184125                1
  -1.0281626120005876       -2.7042168160007836       0.77266453872153629                1
 -0.89654238614080151       -2.5287231815210687       0.76525214502872529                1
 -0.84626793346930040       -2.4616905779590672       0.76242086257606667                1
  -1.3655207664219331       -3.1540276885625773       0.86083309051443990                1
  -1.3158051511828139       -3.0877402015770854       0.85810741178693484                1
  -1.1856479807151887       -2.9141973076202516       0.85097149223591395                1
  -1.0247648702581755       -2.6996864936775675       0.84215101058888286                1
 -0.89460769979055010       -2.5261435997207333       0.83501509103786209                1
 -0.84489208455143183       -2.4598561127352423       0.83228941231035702                1
  -1.3465974322151548       -3.1287965762868732        1.0408560536626044                1
  -1.2983448723681983       -3.0644598298242642        1.0384068490768901                1
  -1.1720180306446757       -2.8960240408595674        1.0319947482260865                1
  -1.0158694668915449       -2.6878259558553932        1.0240689556959095                1
 -0.88954262516802229       -2.5193901668906964        1.0176568548451064                1
 -0.84129006532106487       -2.4550534204280865        1.0152076502593916                1
  -1.3232069047746320       -3.0976092063661760        1.2633766736246752                1
  -1.2767627808472339       -3.0356837077963119        1.2612692098722342                1
  -1.1551704858275931       -2.8735606477701241        1.2557517981382857                1
  -1.0048741436431086       -2.6731655248574779        1.2489319021752698                1
 -0.88328184862346859       -2.5110424648312915        1.2434144904413209                1
 -0.83683772469607054       -2.4491169662614274        1.2413070266888799                1
  -1.3042835705678539       -3.0723780940904719        1.4433996367728401                1
  -1.2593025020326181       -3.0124033360434908        1.4415686471621894                1
  -1.1415405357570800       -2.8553873810094399        1.4367750541284581                1
 -0.99597874027647837       -2.6613049870353045        1.4308498472822966                1
 -0.87821677400094034       -2.5042890320012536        1.4260562542485653                1
 -0.83323570546570402       -2.4443142739542720        1.4242252646379145                1
  -1.2970555000813389       -3.0627406667751185        1.5121622899399692                1
  -1.2526332689784843       -3.0035110253046455        1.5104369040544721                1
  -1.1363343580951082       -2.8484458107934776        1.5059197851625310                1
 -0.99258099853406567       -2.6567746647120876        1.5003363191496428                1
 -0.87628208765068938       -2.5017094502009192        1.4958192002577018                1
 -0.83185985654783456       -2.4424798087304462        1.4940938143722049                1
 ZONE I=           6 ,J=           6 ,K=           6 , F=POINT
  -2.4616905779590672       -2.4616905779590672       0.76242086257606667                1
  -2.3928274987221374       -2.3928274987221374       0.76172033402511374                1
  -2.2125416167098781       -2.2125416167098781       0.75988632646862919                1
  -1.9896960111592192       -1.9896960111592192       0.75761936845756606                1
  -1.8094101291469604       -1.8094101291469604       0.75578536090108162                1
  -1.7405470499100304       -1.7405470499100304       0.75508483235012858                1
  -2.4598561127352423       -2.4598561127352423       0.83228941231035702                1
  -2.3911929914693419       -2.3911929914693419       0.83175103532366057                1
  -2.2114306062215614       -2.2114306062215614       0.83034154607372845                1
  -1.9892320782577986       -1.9892320782577986       0.82859932154725757                1
  -1.8094696930100178       -1.8094696930100178       0.82718983229732557                1
  -1.7408065717441186       -1.7408065717441186       0.82665145531062911                1
  -2.4550534204280865       -2.4550534204280865        1.0152076502593916                1
  -2.3869137959266653       -2.3869137959266653        1.0150937915792477                1
  -2.2085219430012897       -2.2085219430012897        1.0147957056847168                1
  -1.9880174861533804       -1.9880174861533804        1.0144272512559429                1
  -1.8096256332280047       -1.8096256332280047        1.0141291653614120                1
  -1.7414860087265831       -1.7414860087265831        1.0140153066812680                1
  -2.4491169662614274       -2.4491169662614274        1.2413070266888799                1
  -2.3816244193469029       -2.3816244193469029        1.2417179014933279                1
  -2.2049266375373806       -2.2049266375373806        1.2427935856964942                1
  -1.9865161677473846       -1.9865161677473846        1.2441232044939305                1
  -1.8098183859378623       -1.8098183859378623        1.2451988886970968                1
  -1.7423258390233374       -1.7423258390233374        1.2456097635015448                1
  -2.4443142739542720       -2.4443142739542720        1.4242252646379145                1
  -2.3773452238042259       -2.3773452238042259        1.4250606577489149                1
  -2.2020179743171084       -2.2020179743171084        1.4272477453074826                1
  -1.9853015756429664       -1.9853015756429664        1.4299511342026154                1
  -1.8099743261558487       -1.8099743261558487        1.4321382217611833                1
  -1.7430052760058028       -1.7430052760058028        1.4329736148721839                1
  -2.4424798087304462       -2.4424798087304462        1.4940938143722049                1
  -2.3757107165514304       -2.3757107165514304        1.4950913590474619                1
  -2.2009069638287913       -2.2009069638287913        1.4977029649125819                1
  -1.9848376427415459       -1.9848376427415459        1.5009310872923072                1
  -1.8100338900189068       -1.8100338900189068        1.5035426931574272                1
  -1.7432647978398907       -1.7432647978398907        1.5045402378326842                1
  -2.3074314419593538       -2.4616905779590672       0.76242086257606667                1
  -2.2402123224535821       -2.3928274987221374       0.76172033402511374                1
  -2.0642303828936313       -2.2125416167098781       0.75988632646862919                1
  -1.8467047427852723       -1.9896960111592192       0.75761936845756606                1
  -1.6707228032253214       -1.8094101291469604       0.75578536090108162                1
  -1.6035036837195495       -1.7405470499100304       0.75508483235012858                1
  -2.3056407706957991       -2.4598561127352423       0.83228941231035702                1
  -2.2386168355892688       -2.3911929914693419       0.83175103532366057                1
  -2.0631458954206070       -2.2114306062215614       0.83034154607372845                1
  -1.8462518852963419       -1.9892320782577986       0.82859932154725757                1
  -1.6707809451276798       -1.8094696930100178       0.82718983229732557                1
  -1.6037570100211505       -1.7408065717441186       0.82665145531062911                1
  -2.3009527324651327       -2.4550534204280865        1.0152076502593916                1
  -2.2344397967498919       -2.3869137959266653        1.0150937915792477                1
  -2.0603066703558550       -2.2085219430012897        1.0147957056847168                1
  -1.8450662889982623       -1.9880174861533804        1.0144272512559429                1
  -1.6709331626042256       -1.8096256332280047        1.0141291653614120                1
  -1.6044202268889844       -1.7414860087265831        1.0140153066812680                1
  -2.2951579985309114       -2.4491169662614274        1.2413070266888799                1
  -2.2292766927997651       -2.3816244193469029        1.2417179014933279                1
  -2.0567971951724004       -2.2049266375373806        1.2427935856964942                1
  -1.8436008113799638       -1.9865161677473846        1.2441232044939305                1
  -1.6711213137525993       -1.8098183859378623        1.2451988886970968                1
  -1.6052400080214526       -1.7423258390233374        1.2456097635015448                1
  -2.2904699603002450       -2.4443142739542720        1.4242252646379145                1
  -2.2250996539603878       -2.3773452238042259        1.4250606577489149                1
  -2.0539579701076485       -2.2020179743171084        1.4272477453074826                1
  -1.8424152150818842       -1.9853015756429664        1.4299511342026154                1
  -1.6712735312291445       -1.8099743261558487        1.4321382217611833                1
  -1.6059032248892875       -1.7430052760058028        1.4329736148721839                1
  -2.2886792890366894       -2.4424798087304462        1.4940938143722049                1
  -2.2235041670960740       -2.3757107165514304        1.4950913590474619                1
  -2.0528734826346238       -2.2009069638287913        1.4977029649125819                1
  -1.8419623575929540       -1.9848376427415459        1.5009310872923072                1
  -1.6713316731315033       -1.8100338900189068        1.5035426931574272                1
  -1.6061565511908880       -1.7432647978398907        1.5045402378326842                1
  -1.9035757808369123       -2.4616905779590672       0.76242086257606667                1
  -1.8406606037834488       -2.3928274987221374       0.76172033402511374                1
  -1.6759465318492639       -2.2125416167098781       0.75988632646862919                1
  -1.4723487420878210       -1.9896960111592192       0.75761936845756606                1
  -1.3076346701536365       -1.8094101291469604       0.75578536090108162                1
  -1.2447194931001728       -1.7405470499100304       0.75508483235012858                1
  -1.9018997636498467       -2.4598561127352423       0.83228941231035702                1
  -1.8391672736224347       -2.3911929914693419       0.83175103532366057                1
  -1.6749314825317594       -2.2114306062215614       0.83034154607372845                1
  -1.4719248804052294       -1.9892320782577986       0.82859932154725757                1
  -1.3076890893145536       -1.8094696930100178       0.82718983229732557                1
  -1.2449565992871430       -1.7408065717441186       0.82665145531062911                1
  -1.8975118936883772       -2.4550534204280865        1.0152076502593916                1
  -1.8352576845044752       -2.3869137959266653        1.0150937915792477                1
  -1.6722740489182744       -2.2085219430012897        1.0147957056847168                1
  -1.4708151961136762       -1.9880174861533804        1.0144272512559429                1
  -1.3078315605274753       -1.8096256332280047        1.0141291653614120                1
  -1.2455773513435728       -1.7414860087265831        1.0140153066812680                1
  -1.8920881881395721       -2.4491169662614274        1.2413070266888799                1
  -1.8304251665905837       -2.3816244193469029        1.2417179014933279                1
  -1.6689892803263144       -2.2049266375373806        1.2427935856964942                1
  -1.4694435508957522       -1.9865161677473846        1.2441232044939305                1
  -1.3080076646314829       -1.8098183859378623        1.2451988886970968                1
  -1.2463446430824940       -1.7423258390233374        1.2456097635015448                1
  -1.8877003181781031       -2.4443142739542720        1.4242252646379145                1
  -1.8265155774726236       -2.3773452238042259        1.4250606577489149                1
  -1.6663318467128290       -2.2020179743171084        1.4272477453074826                1
  -1.4683338666041990       -1.9853015756429664        1.4299511342026154                1
  -1.3081501358444041       -1.8099743261558487        1.4321382217611833                1
  -1.2469653951389248       -1.7430052760058028        1.4329736148721839                1
  -1.8860243009910365       -2.4424798087304462        1.4940938143722049                1
  -1.8250222473116098       -2.3757107165514304        1.4950913590474619                1
  -1.6653167973953242       -2.2009069638287913        1.4977029649125819                1
  -1.4679100049216074       -1.9848376427415459        1.5009310872923072                1
  -1.3082045550053216       -1.8100338900189068        1.5035426931574272                1
  -1.2472025013258947       -1.7432647978398907        1.5045402378326842                1
  -1.4043827305914554       -2.4616905779590672       0.76242086257606667                1
  -1.3467875189802916       -2.3928274987221374       0.76172033402511374                1
  -1.1960012973930230       -2.2125416167098781       0.75988632646862919                1