 VARIABLES = "X", "Y", "Z"
 ZONE F=FEPOINT, ET=QUADRILATERAL, N=         473 E=         426
  -3.7390743669690107       0.26001139680319940        0.0000000000000000     
  -3.4933137620626096       0.25476876002699644        0.0000000000000000     
  -3.2474417721393039       0.25172587498165572        0.0000000000000000     
  -2.9994396088427560       0.25044022020877016        0.0000000000000000     
  -2.7499201010723882       0.25007979494200777        0.0000000000000000     
  -2.4999936182583142       0.25001080239998302        0.0000000000000000     
  -2.2499998585220071       0.25000111388818885        0.0000000000000000     
  -2.0000000166445635       0.25000008712932953        0.0000000000000000     
  -1.7499999848722625       0.25000000536109723        0.0000000000000000     
  -1.4999999911183854       0.25000000026772934        0.0000000000000000     
  -1.2500000028583014       0.25000000001058365        0.0000000000000000     
 -0.99999999509960558       0.25000000000035955        0.0000000000000000     
 -0.74999998346183361       0.25000000000001349        0.0000000000000000     
 -0.49999999152658364       0.25000000000000067        0.0000000000000000     
 -0.25000000472460604       0.25000000000000000        0.0000000000000000     
   1.8886949905643321E-009  0.25000000000000000        0.0000000000000000     
  0.25000001576633396       0.25000000000000000        0.0000000000000000     
  0.50000001508156211       0.25000000000000067        0.0000000000000000     
  0.75000003546201521       0.25000000000001349        0.0000000000000000     
   1.0000000704099756       0.25000000000035955        0.0000000000000000     
   1.2500000560111901       0.25000000001058365        0.0000000000000000     
   1.5000000222297223       0.25000000026772934        0.0000000000000000     
   1.7500000398253392       0.25000000536109745        0.0000000000000000     
   2.0000000952185277       0.25000008712933414        0.0000000000000000     
   2.2499999135605915       0.25000111388822577        0.0000000000000000     
   2.4999936498651740       0.25001080239955858        0.0000000000000000     
   2.7499201567034199       0.25007979492988680        0.0000000000000000     
   2.9994396825411984       0.25044022009396821        0.0000000000000000     
   3.2474417817786425       0.25172587442394828        0.0000000000000000     
   3.4933136963953357       0.25476875871831717        0.0000000000000000     
   3.7390743097336059       0.26001139545759150        0.0000000000000000     
  -3.7261416006744890       0.51568547381547447        0.0000000000000000     
  -3.4891433496732129       0.50659149479163945        0.0000000000000000     
  -3.2466909345419173       0.50229144830461014        0.0000000000000000     
  -2.9993862100590385       0.50064689576821142        0.0000000000000000     
  -2.7499504607385497       0.50014519580208239        0.0000000000000000     
  -2.5000033872432055       0.50002439892527539        0.0000000000000000     
  -2.2500014607924403       0.50000302073610059        0.0000000000000000     
  -2.0000002056691009       0.50000028547570841        0.0000000000000000     
  -1.7500000139974565       0.50000002104422758        0.0000000000000000     
  -1.4999999981457848       0.50000000120664456        0.0000000000000000     
  -1.2499999990447752       0.50000000005893819        0.0000000000000000     
 -0.99999999783331983       0.50000000000304057        0.0000000000000000     
 -0.74999999607452972       0.50000000000018696        0.0000000000000000     
 -0.49999999747319673       0.50000000000001144        0.0000000000000000     
 -0.24999999965432035       0.50000000000000067        0.0000000000000000     
   1.4388806616371806E-009  0.50000000000000000        0.0000000000000000     
  0.25000000433722297       0.50000000000000067        0.0000000000000000     
  0.50000000761666330       0.50000000000001144        0.0000000000000000     
  0.75000001414698836       0.50000000000018696        0.0000000000000000     
   1.0000000203041350       0.50000000000304057        0.0000000000000000     
   1.2500000182440705       0.50000000005893819        0.0000000000000000     
   1.5000000141091676       0.50000000120664456        0.0000000000000000     
   1.7500000337952160       0.50000002104422825        0.0000000000000000     
   2.0000002291505616       0.50000028547572828        0.0000000000000000     
   2.2500014806710853       0.50000302073639535        0.0000000000000000     
   2.5000034035397745       0.50002439892695227        0.0000000000000000     
   2.7499504800194674       0.50014519579003613        0.0000000000000000     
   2.9993862281313710       0.50064689550552266        0.0000000000000000     
   3.2466909372461772       0.50229144646625645        0.0000000000000000     
   3.4891433364005278       0.50659148814168276        0.0000000000000000     
   3.7261415877148636       0.51568546504824975        0.0000000000000000     
  -3.7083131868461190       0.76371635095617174        0.0000000000000000     
  -3.4857293994550593       0.75445373271127292        0.0000000000000000     
  -3.2475958817719612       0.75193661228087172        0.0000000000000000     
  -3.0001405300786290       0.75088519760476713        0.0000000000000000     
  -2.7501601164696408       0.75026583761877896        0.0000000000000000     
  -2.5000438576686728       0.75005467325557529        0.0000000000000000     
  -2.2500075186176645       0.75000820874188601        0.0000000000000000     
  -2.0000008921972325       0.75000091845795669        0.0000000000000000     
  -1.7500000765752322       0.75000007784409084        0.0000000000000000     
  -1.5000000048533162       0.75000000553641810        0.0000000000000000     
  -1.2499999999604501       0.75000000039772885        0.0000000000000000     
 -0.99999999946264784       0.75000000003182188        0.0000000000000000     
 -0.74999999922978833       0.75000000000250311        0.0000000000000000     
 -0.49999999942746842       0.75000000000018763        0.0000000000000000     
 -0.24999999971878034       0.75000000000001399        0.0000000000000000     
   4.5624145837715431E-010  0.75000000000000266        0.0000000000000000     
  0.25000000108072767       0.75000000000001399        0.0000000000000000     
  0.50000000206823136       0.75000000000018763        0.0000000000000000     
  0.75000000346157858       0.75000000000250311        0.0000000000000000     
   1.0000000045219699       0.75000000003182188        0.0000000000000000     
   1.2500000046798143       0.75000000039772885        0.0000000000000000     
   1.5000000092036125       0.75000000553641810        0.0000000000000000     
   1.7500000814285981       0.75000007784409251        0.0000000000000000     
   2.0000008975219066       0.75000091845801209        0.0000000000000000     
   2.2500075235029122       0.75000820874294238        0.0000000000000000     
   2.5000438620728178       0.75005467326696351        0.0000000000000000     
   2.7501601209264135       0.75026583767447708        0.0000000000000000     
   3.0001405335711908       0.75088519750574179        0.0000000000000000     
   3.2475958827865901       0.75193660940461904        0.0000000000000000     
   3.4857294008468340       0.75445371641166625        0.0000000000000000     
   3.7083131973510990       0.76371630013610414        0.0000000000000000     
  -3.6916804269508177       0.99520413762179605        0.0000000000000000     
  -3.4899167821686725       0.99756540411934069        0.0000000000000000     
  -3.2529296545239861        1.0030309524186338        0.0000000000000000     
  -3.0016710229500791        1.0016734293692517        0.0000000000000000     
  -2.7505850629867998        1.0005610766300197        0.0000000000000000     
  -2.5001421659976986        1.0001345175126690        0.0000000000000000     
  -2.2500239218707687        1.0000229800571114        0.0000000000000000     
  -2.0000029746622574        1.0000029012283711        0.0000000000000000     
  -1.7500003085891522        1.0000003031425235        0.0000000000000000     
  -1.5000000310089414        1.0000000306977799        0.0000000000000000     
  -1.2500000031866829        1.0000000032502665        0.0000000000000000     
  -1.0000000002364950        1.0000000003318894        0.0000000000000000     
 -0.74999999992106270        1.0000000000319704        0.0000000000000000     
 -0.49999999991337163        1.0000000000030596        0.0000000000000000     
 -0.24999999993792194        1.0000000000003773        0.0000000000000000     
   8.9402418754574688E-011   1.0000000000001132        0.0000000000000000     
  0.25000000018808854        1.0000000000003773        0.0000000000000000     
  0.50000000035447467        1.0000000000030596        0.0000000000000000     
  0.75000000058272254        1.0000000000319704        0.0000000000000000     
   1.0000000010176515        1.0000000003318894        0.0000000000000000     
   1.2500000039539143        1.0000000032502665        0.0000000000000000     
   1.5000000317491886        1.0000000306977792        0.0000000000000000     
   1.7500003093776169        1.0000003031425224        0.0000000000000000     
   2.0000029754947692        1.0000029012284706        0.0000000000000000     
   2.2500239226638321        1.0000229800594913        0.0000000000000000     
   2.5001421667232075        1.0001345175448431        0.0000000000000000     
   2.7505850635599751        1.0005610768882165        0.0000000000000000     
   3.0016710228556147        1.0016734304719441        0.0000000000000000     
   3.2529296533598488        1.0030309533555484        0.0000000000000000     
   3.4899167847668613       0.99756538786037730        0.0000000000000000     
   3.6916804482671202       0.99520405311732041        0.0000000000000000     
  -3.6903667277850190        1.1574270613290720        0.0000000000000000     
  -3.5367914358599268        1.2627608950999802        0.0000000000000000     
  -3.2572823327269065        1.2564638236483354        0.0000000000000000     
  -3.0035711536215275        1.2530894000122521        0.0000000000000000     
  -2.7513882157183263        1.2512198716747915        0.0000000000000000     
  -2.5003427924974573        1.2503198597494425        0.0000000000000000     
  -2.2500629754932451        1.2500606998915169        0.0000000000000000     
  -2.0000097175723348        1.2500094578849978        0.0000000000000000     
  -1.7500014040907301        1.2500013748463019        0.0000000000000000     
  -1.5000001990399809        1.2500001969030732        0.0000000000000000     
  -1.2500000263439330        1.2500000263543687        0.0000000000000000     
  -1.0000000032396572        1.2500000032736798        0.0000000000000000     
 -0.75000000038636794        1.2500000004014344        0.0000000000000000     
 -0.50000000004908485        1.2500000000592788        0.0000000000000000     
 -0.25000000000240885        1.2500000000110554        0.0000000000000000     
   1.1057723126805750E-011   1.2500000000039384        0.0000000000000000     
  0.25000000003163581        1.2500000000110554        0.0000000000000000     
  0.50000000009664247        1.2500000000592788        0.0000000000000000     
  0.75000000045439508        1.2500000004014344        0.0000000000000000     
   1.0000000033196208        1.2500000032736798        0.0000000000000000     
   1.2500000264252171        1.2500000263543667        0.0000000000000000     
   1.5000001991204648        1.2500001969030587        0.0000000000000000     
   1.7500014041744949        1.2500013748462317        0.0000000000000000     
   2.0000097176590392        1.2500094578849090        0.0000000000000000     
   2.2500629755762551        1.2500606998947612        0.0000000000000000     
   2.5003427925524857        1.2503198598053182        0.0000000000000000     
   2.7513882155490004        1.2512198722137846        0.0000000000000000     
   3.0035711521695716        1.2530894032950881        0.0000000000000000     
   3.2572823267495949        1.2564638362267810        0.0000000000000000     
   3.5367914218808294        1.2627609217346671        0.0000000000000000     
   3.6903667410025398        1.1574270064590866        0.0000000000000000     
  -3.4806475509157120        1.5198919126640797        0.0000000000000000     
  -3.2574718269953014        1.5066507763722541        0.0000000000000000     
  -3.0075689114471889        1.5062887489575290        0.0000000000000000     
  -2.7524963558230424        1.5024115315768276        0.0000000000000000     
  -2.5006894804213515        1.5006791059829780        0.0000000000000000     
  -2.2501658583195105        1.5001610189825800        0.0000000000000000     
  -2.0000355786480015        1.5000345039523610        0.0000000000000000     
  -1.7500069988400948        1.5000068832466475        0.0000000000000000     
  -1.5000012301183592        1.5000012301263566        0.0000000000000000     
  -1.2500001968931471        1.5000001990627845        0.0000000000000000     
  -1.0000000306779986        1.5000000311463602        0.0000000000000000     
 -0.75000000550603596        1.5000000056052418        0.0000000000000000     
 -0.50000000117301602        1.5000000012024595        0.0000000000000000     
 -0.25000000024478602        1.5000000002688108        0.0000000000000000     
   8.6520141918277793E-013   1.5000000001002070        0.0000000000000000     
  0.25000000024696395        1.5000000002688108        0.0000000000000000     
  0.50000000117632493        1.5000000012024595        0.0000000000000000     
  0.75000000551059676        1.5000000056052418        0.0000000000000000     
   1.0000000306833516        1.5000000311463595        0.0000000000000000     
   1.2500001968987338        1.5000001990627703        0.0000000000000000     
   1.5000012301241008        1.5000012301262240        0.0000000000000000     
   1.7500069988466884        1.5000068832458184        0.0000000000000000     
   2.0000355786571706        1.5000345039491791        0.0000000000000000     
   2.2501658583321342        1.5001610189782206        0.0000000000000000     
   2.5006894804124924        1.5006791060356035        0.0000000000000000     
   2.7524963555482023        1.5024115322405216        0.0000000000000000     
   3.0075689094547085        1.5062887535296585        0.0000000000000000     
   3.2574718173301318        1.5066507984327280        0.0000000000000000     
   3.4806475147331031        1.5198919963498305        0.0000000000000000     
  -3.4632504459399787        1.6820191274089262        0.0000000000000000     
  -3.2937487817819249        1.7787892084600401        0.0000000000000000     
  -3.0079991842120739        1.7604103704737433        0.0000000000000000     
  -2.7533738700780450        1.7537911341805368        0.0000000000000000     
  -2.5014321066533638        1.7514022707853150        0.0000000000000000     
  -2.2504808235759568        1.7504588040626514        0.0000000000000000     
  -2.0001365219788019        1.7501329366425185        0.0000000000000000     
  -1.7500326001124136        1.7500326001708679        0.0000000000000000     
  -1.5000068831440179        1.7500069989536031        0.0000000000000000     
  -1.2500013745274294        1.7500014044684062        0.0000000000000000     
  -1.0000003024090378        1.7500003095904946        0.0000000000000000     
 -0.75000007662221235        1.7500000789901635        0.0000000000000000     
 -0.50000001962090035        1.7500000203813575        0.0000000000000000     
 -0.25000000437089864        1.7500000048275011        0.0000000000000000     
   4.2685760559080338E-014   1.7500000018746622        0.0000000000000000     
  0.25000000437100189        1.7500000048275011        0.0000000000000000     
  0.50000001962104823        1.7500000203813575        0.0000000000000000     
  0.75000007662241019        1.7500000789901635        0.0000000000000000     
   1.0000003024092738        1.7500003095904901        0.0000000000000000     
   1.2500013745277492        1.7500014044683319        0.0000000000000000     
   1.5000068831451019        1.7500069989527691        0.0000000000000000     
   1.7500326001186184        1.7500326001649205        0.0000000000000000     
   2.0001365220075580        1.7501329366141107        0.0000000000000000     
   2.2504808236607947        1.7504588039801707        0.0000000000000000     
   2.5014321067916638        1.7514022706787860        0.0000000000000000     
   2.7533738700367114        1.7537911345285695        0.0000000000000000     
   3.0079991828687040        1.7604103737701857        0.0000000000000000     
   3.2937487754417694        1.7787892232627469        0.0000000000000000     
   3.4632504198209566        1.6820191882727682        0.0000000000000000     
  -3.2195243214013978        2.0281517049880171        0.0000000000000000     
  -3.0014941734228615        2.0074703554252338        0.0000000000000000     
  -2.7559451568841835        2.0058138514894592        0.0000000000000000     
  -2.5032554205893360        2.0029764550304461        0.0000000000000000     
  -2.2514081805083723        2.0013432235057373        0.0000000000000000     
  -2.0004663083210539        2.0004663087498407        0.0000000000000000     
  -1.7501329362147633        2.0001365224161964        0.0000000000000000     
  -1.5000345019933887        2.0000355807335164        0.0000000000000000     
  -1.2500094507400950        2.0000097254954419        0.0000000000000000     
  -1.0000028829671996        2.0000029957507763        0.0000000000000000     
 -0.75000088560810341        2.0000009317934406        0.0000000000000000     
 -0.50000024515064434        2.0000002575050426        0.0000000000000000     
 -0.25000005820684373        2.0000000627308059        0.0000000000000000     
   3.6629580662042583E-016   2.0000000232292026        0.0000000000000000     
  0.25000005820684434        2.0000000627308063        0.0000000000000000     
  0.50000024515064445        2.0000002575050435        0.0000000000000000     
  0.75000088560810374        2.0000009317934415        0.0000000000000000     
   1.0000028829672118        2.0000029957507657        0.0000000000000000     
   1.2500094507403503        2.0000097254951905        0.0000000000000000     
   1.5000345019967600        2.0000355807301498        0.0000000000000000     
   1.7501329362433335        2.0001365223876335        0.0000000000000000     
   2.0004663084758736        2.0004663085950853        0.0000000000000000     
   2.2514081810628488        2.0013432229525336        0.0000000000000000     
   2.5032554217561942        2.0029764538809705        0.0000000000000000     
   2.7559451581896370        2.0058138503315113        0.0000000000000000     
   3.0014941738031466        2.0074703557694704        0.0000000000000000     
   3.2195243208943771        2.0281517065650880        0.0000000000000000     
  -3.1889947970995642        2.1823001481305044        0.0000000000000000     
  -3.0238680094356387        2.2668669987053680        0.0000000000000000     
  -2.7600549968694872        2.2574806283872184        0.0000000000000000     
  -2.5077600573334906        2.2570398674897190        0.0000000000000000     
  -2.2533958736642452        2.2533958786877979        0.0000000000000000     
  -2.0013432219053042        2.2514081820993068        0.0000000000000000     
  -1.7504588001176116        2.2504808275220136        0.0000000000000000     
  -1.5001609946644665        2.2501658833684113        0.0000000000000000     
  -1.2500605965256864        2.2500630861438391        0.0000000000000000     
  -1.0000226831495225        2.2500242530170871        0.0000000000000000     
 -0.75000762660286002        2.2500081916079941        0.0000000000000000     
 -0.50000226277323012        2.2500023583525022        0.0000000000000000     
 -0.25000055128520460        2.2500005323442718        0.0000000000000000     
  -2.8253799819221489E-014   2.2500001357509327        0.0000000000000000     
  0.25000055128512416        2.2500005323442887        0.0000000000000000     
  0.50000226277308979        2.2500023583525386        0.0000000000000000     
  0.75000762660265885        2.2500081916080465        0.0000000000000000     
   1.0000226831493237        2.2500242530171217        0.0000000000000000     
   1.2500605965260820        2.2500630861433044        0.0000000000000000     
   1.5001609946731169        2.2501658833596716        0.0000000000000000     
   1.7504588002037305        2.2504808274358536        0.0000000000000000     
   2.0013432224606889        2.2514081815439360        0.0000000000000000     
   2.2533958759214361        2.2533958764311319        0.0000000000000000     
   2.5077600633027242        2.2570398615265619        0.0000000000000000     
   2.7600550045329815        2.2574806207624074        0.0000000000000000     
   3.0238680130878395        2.2668669951505311        0.0000000000000000     
   3.1889947974939745        2.1823001478591713        0.0000000000000000     
  -2.9646568425428104        2.4523366644370990        0.0000000000000000     
  -2.7854164619787123        2.5301560441570823        0.0000000000000000     
  -2.5114446183937789        2.5114446585447645        0.0000000000000000     
  -2.2570398542064547        2.5077600706068921        0.0000000000000000     
  -2.0029764503359901        2.5032554251585659        0.0000000000000000     
  -1.7514022453031508        2.5014321314179493        0.0000000000000000     
  -1.5006789120434283        2.5006896744340295        0.0000000000000000     
  -1.2503188941223369        2.5003437910863493        0.0000000000000000     
  -1.0001313671165124        2.5001455652326650        0.0000000000000000     
 -0.75004787696328079        2.5000515093899121        0.0000000000000000     
 -0.50001494802873914        2.5000143351964144        0.0000000000000000     
 -0.25000351268132343        2.5000019247622438        0.0000000000000000     
  -5.0881103719419351E-013   2.4999995032476914        0.0000000000000000     
  0.25000351267971366        2.5000019247626066        0.0000000000000000     
  0.50001494802560253        2.5000143351972368        0.0000000000000000     
  0.75004787695851249        2.5000515093911768        0.0000000000000000     
   1.0001313671111791        2.5001455652340545        0.0000000000000000     
   1.2503188941188421        2.5003437910865829        0.0000000000000000     
   1.5006789120559425        2.5006896744195717        0.0000000000000000     
   1.7514022454640401        2.5014321312562537        0.0000000000000000     
   2.0029764515156443        2.5032554239787030        0.0000000000000000     
   2.2570398601801043        2.5077600646333513        0.0000000000000000     
   2.5114446365992240        2.5114446403405255        0.0000000000000000     
   2.7854164995502271        2.5301560065899058        0.0000000000000000     
   2.9646568496391241        2.4523366573470602        0.0000000000000000     
  -2.7160323500541526        2.7160325335280189        0.0000000000000000     
  -2.5301559612973277        2.7854165448372989        0.0000000000000000     
  -2.2574806110780425        2.7600550141380631        0.0000000000000000     
  -2.0058138404688526        2.7559451671602582        0.0000000000000000     
  -1.7537910223794519        2.7533739746613435        0.0000000000000000     
  -1.5024105287923042        2.7524973262625578        0.0000000000000000     
  -1.2512140592000480        2.7513940304671922        0.0000000000000000     
  -1.0005394346353196        2.7506075714920679        0.0000000000000000     
 -0.75021409105491621        2.7502166926627036        0.0000000000000000     
 -0.50006786203375031        2.7500384972472318        0.0000000000000000     
 -0.25001756452296525        2.7499887415560216        0.0000000000000000     
  -5.4871873957087981E-012   2.7499837185414835        0.0000000000000000     
  0.25001756450291118        2.7499887415607809        0.0000000000000000     
  0.50006786198900444        2.7500384972590348        0.0000000000000000     
  0.75021409098205427        2.7502166926820557        0.0000000000000000     
   1.0005394345516883        2.7506075715142679        0.0000000000000000     
   1.2512140591340761        2.7513940304839308        0.0000000000000000     
   1.5024105287735952        2.7524973262545251        0.0000000000000000     
   1.7537910225583009        2.7533739744732153        0.0000000000000000     
   2.0058138418830365        2.7559451657442331        0.0000000000000000     
   2.2574806187703542        2.7600550064456009        0.0000000000000000     
   2.5301559988720048        2.7854165072627257        0.0000000000000000     
   2.7160324332636598        2.7160324503186888        0.0000000000000000     
  -2.4523366487691969        2.9646568582092550        0.0000000000000000     
  -2.2668669898493312        3.0238680182067150        0.0000000000000000     
  -2.0074703342075981        3.0014941923399983        0.0000000000000000     
  -1.7604100430694920        3.0079994788260680        0.0000000000000000     
  -1.5062853284859468        3.0075720839674100        0.0000000000000000     
  -1.2530667680669301        3.0035929193642263        0.0000000000000000     
  -1.0015780922937139        3.0017663452948682        0.0000000000000000     
 -0.75063263590310936        3.0004057524481822        0.0000000000000000     
 -0.50024031472915298        2.9998427101289065        0.0000000000000000     
 -0.25009817399644546        2.9998155615743252        0.0000000000000000     
  -3.4530789384450510E-011   2.9998494770780950        0.0000000000000000     
  0.25009817384263000        2.9998155616122295        0.0000000000000000     
  0.50024031432246252        2.9998427102364618        0.0000000000000000     
  0.75063263517794832        3.0004057526408463        0.0000000000000000     
   1.0015780914379042        3.0017663455223689        0.0000000000000000     
   1.2530667674118314        3.0035929195377569        0.0000000000000000     
   1.5062853281904909        3.0075720840357572        0.0000000000000000     
   1.7604100431303622        3.0079994787062287        0.0000000000000000     
   2.0074703351242054        3.0014941914164881        0.0000000000000000     
   2.2668669935741459        3.0238680144815024        0.0000000000000000     
   2.4523366558702051        2.9646568511082414        0.0000000000000000     
  -2.1823001464375853        3.1889947987055582        0.0000000000000000     
  -2.0281516829203858        3.2195243406481313        0.0000000000000000     
  -1.7787886467326539        3.2937492736471778        0.0000000000000000     
  -1.5066433356177855        3.2574784444651801        0.0000000000000000     
  -1.2564066978703763        3.2573344615424249        0.0000000000000000     
  -1.0027627412207096        3.2531841343000076        0.0000000000000000     
 -0.75116051305078146        3.2483692564039361        0.0000000000000000     
 -0.50095704549918318        3.2481198010116064        0.0000000000000000     
 -0.25055737622268232        3.2488655484558047        0.0000000000000000     
  -1.2128345880136765E-010   3.2492060887485121        0.0000000000000000     
  0.25055737552409191        3.2488655486308109        0.0000000000000000     
  0.50095704317743739        3.2481198016262445        0.0000000000000000     
  0.75116050830928804        3.2483692576640175        0.0000000000000000     
   1.0027627353544764        3.2531841358597227        0.0000000000000000     
   1.2564066936861371        3.2573344626546406        0.0000000000000000     
   1.5066433341105172        3.2574784448609204        0.0000000000000000     
   1.7787886465875462        3.2937492736439453        0.0000000000000000     
   2.0281516832066102        3.2195243403528275        0.0000000000000000     
   2.1823001469238559        3.1889947982188485        0.0000000000000000     
  -1.6820185742750613        3.4632509222911980        0.0000000000000000     
  -1.5198841181498888        3.4806543165483173        0.0000000000000000     
  -1.2626778391353828        3.5368633536017420        0.0000000000000000     
 -0.99708967282245309        3.4903324047459239        0.0000000000000000     
 -0.75297138883821768        3.4870790469609125        0.0000000000000000     
 -0.50393662884996338        3.4917355094717859        0.0000000000000000     
 -0.25239835225493873        3.4959458892153212        0.0000000000000000     
  -2.5458726833934009E-010   3.4974765700092316        0.0000000000000000     
  0.25239835062125848        3.4959458896197102        0.0000000000000000     
  0.50393662095503233        3.4917355115625983        0.0000000000000000     
  0.75297136832239187        3.4870790524145412        0.0000000000000000     
  0.99708964440729508        3.4903324123013615        0.0000000000000000     
   1.2626778212755090        3.5368633583505753        0.0000000000000000     
   1.5198841159182805        3.4806543171404325        0.0000000000000000     
   1.6820185740229132        3.4632509223559547        0.0000000000000000     
  -1.1573423571008867        3.6904371948411803        0.0000000000000000     
 -0.99476720659380413        3.6920352175886673        0.0000000000000000     
 -0.76200380239123389        3.7095503943754364        0.0000000000000000     
 -0.51244033690668245        3.7285667886464453        0.0000000000000000     
 -0.25724752854456628        3.7413215143714464        0.0000000000000000     
  -3.7265312868435780E-010   3.7457030086964687        0.0000000000000000     
  0.25724752673509216        3.7413215147850876        0.0000000000000000     
  0.51244032666115868        3.7285667913600498        0.0000000000000000     