 VARIABLES = "X", "Y", "Z", "Material ID"
 ZONE F=FEPOINT, ET=QUADRILATERAL, N=         454 E=         384
  -1.3463666951815911       -4.4278356862635322        0.0000000000000000                1
  -1.0052707159785490       -4.4345601529964913        0.0000000000000000                1
 -0.51910709790572451       -4.4629833924076507        0.0000000000000000                1
  -3.5273515942765807E-006  -4.4771024442559231        0.0000000000000000                1
  0.51910197548984194       -4.4629841546500453        0.0000000000000000                1
   1.0052700936928802       -4.4345630401051181        0.0000000000000000                1
   1.3463687008092451       -4.4278393187155940        0.0000000000000000                1
  -2.3715399042549552       -3.8661142525589951        0.0000000000000000                1
  -2.0616275540667375       -3.9390560870612212        0.0000000000000000                1
  -1.5523602586537626       -4.0885537110557886        0.0000000000000000                1
 -0.99954480388052225       -3.9928495898867884        0.0000000000000000                1
 -0.50174524750425664       -3.9798387368044197        0.0000000000000000                1
  -8.7916312478410768E-006  -3.9797203766508162        0.0000000000000000                1
  0.50174602816077163       -3.9798378318353387        0.0000000000000000                1
  0.99958511413584761       -3.9928710819063364        0.0000000000000000                1
   1.5524207474705602       -4.0885931132099227        0.0000000000000000                1
   2.0616793948639636       -3.9390949549982168        0.0000000000000000                1
   2.3715654319594064       -3.8661350609463048        0.0000000000000000                1
  -2.8662048946646812       -3.3716286695206668        0.0000000000000000                1
  -2.5213091657893107       -3.5213271391197782        0.0000000000000000                1
  -2.0120580242944492       -3.4967337034323736        0.0000000000000000                1
  -1.5169312012410219       -3.5105414962487935        0.0000000000000000                1
  -1.0069297197495117       -3.5017559877053581        0.0000000000000000                1
 -0.50182255291182154       -3.4877233769304596        0.0000000000000000                1
   3.9121649082379838E-005  -3.4848246241020462        0.0000000000000000                1
  0.50205995783317781       -3.4875448825581232        0.0000000000000000                1
   1.0074463071927275       -3.5017217541924035        0.0000000000000000                1
   1.5175020169547400       -3.5107218872499533        0.0000000000000000                1
   2.0124185344750458       -3.4969273285077578        0.0000000000000000                1
   2.5214381881456309       -3.5214183978948213        0.0000000000000000                1
   2.8662507765929055       -3.3716696800775776        0.0000000000000000                1
  -2.9396362814736241       -3.0621164033181958        0.0000000000000000                1
  -2.4973118595298924       -3.0126424332461457        0.0000000000000000                1
  -2.0063438290554485       -3.0068174332015545        0.0000000000000000                1
  -1.5030836929945426       -3.0015290438217428        0.0000000000000000                1
  -1.0074932189733723       -2.9966671865762335        0.0000000000000000                1
 -0.52525763085348176       -2.9869033679099193        0.0000000000000000                1
  0.52727385789907766       -2.9845940314373882        0.0000000000000000                1
   1.0109968748825762       -2.9952398264811144        0.0000000000000000                1
   1.5061962487586353       -3.0017625129896852        0.0000000000000000                1
   2.0077800552724505       -3.0073695132327072        0.0000000000000000                1
   2.4976850962862680       -3.0128707553454901        0.0000000000000000                1
   2.9397767268849764       -3.0621762935362047        0.0000000000000000                1
  -3.4292703172851087       -2.3475425349747052        0.0000000000000000                1
  -3.0907944219702546       -2.5539644459151178        0.0000000000000000                1
  -2.5133559245305257       -2.5184802898264556        0.0000000000000000                1
  -2.0008424708099737       -2.5033604851980367        0.0000000000000000                1
  -1.4884662400018709       -2.4952885616598857        0.0000000000000000                1
 -0.99755275364098805       -2.5035264392616687        0.0000000000000000                1
 -0.56648287170119083       -2.5060230176511684        0.0000000000000000                1
  0.57602589356895872       -2.4900877891342916        0.0000000000000000                1
   1.0140188086865352       -2.4948775040396800        0.0000000000000000                1
   1.4998844347697200       -2.4955815336818286        0.0000000000000000                1
   2.0034832844864869       -2.5043417564652608        0.0000000000000000                1
   2.5130888588571811       -2.5181189725354378        0.0000000000000000                1
   3.0913689131111841       -2.5531529849803052        0.0000000000000000                1
   3.4310790802937725       -2.3476807728159272        0.0000000000000000                1
  -3.4374501539463367       -2.0071743048166799        0.0000000000000000                1
  -2.9989667345306579       -2.0031298081583349        0.0000000000000000                1
  -2.5089870631991236       -2.0080087941123259        0.0000000000000000                1
  -1.9975487773612268       -1.9984412274882211        0.0000000000000000                1
  -1.4789980304449211       -1.9849119057598279        0.0000000000000000                1
 -0.89243655100934394       -1.9659036050034808        0.0000000000000000                1
 -0.57657584104805726       -2.1730606548298415        0.0000000000000000                1
  0.59409267381500719       -2.0806695243026612        0.0000000000000000                1
  0.96829042003957755       -1.9585304253580671        0.0000000000000000                1
   1.4986192693751965       -1.9877130149535691        0.0000000000000000                1
   1.9972148274735697       -2.0003306325706980        0.0000000000000000                1
   2.5019797298579078       -2.0040205555824380        0.0000000000000000                1
   3.0002371320768693       -1.9936973165366840        0.0000000000000000                1
   3.4455233762155353       -2.0036436276942906        0.0000000000000000                1
  -3.4674182019551414       -1.5207825159966093        0.0000000000000000                1
  -2.9890471157032681       -1.5047860889916640        0.0000000000000000                1
  -2.4973501301660019       -1.5006529633143326        0.0000000000000000                1
  -1.9943876971325973       -1.4954321421421508        0.0000000000000000                1
  -1.4913360895832026       -1.4813105847024108        0.0000000000000000                1
  -1.0076512443714465       -1.4324026538483396        0.0000000000000000                1
   1.0557861035364133       -1.5340081691652887        0.0000000000000000                1
   1.5041244358730006       -1.4193144757124365        0.0000000000000000                1
   1.9918728591409516       -1.5568523433894281        0.0000000000000000                1
   2.4511197384895285       -1.4525842650880136        0.0000000000000000                1
   2.9911809553188857       -1.4837960412649878        0.0000000000000000                1
   3.5177536187119789       -1.4756344550737270        0.0000000000000000                1
  -3.4820947742321420      -0.99990122128988645        0.0000000000000000                1
  -2.9895882006752559      -0.99938808338139995        0.0000000000000000                1
  -2.4920877555185950      -0.99762992705801090        0.0000000000000000                1
  -1.9824722866269635      -0.99425953211276952        0.0000000000000000                1
  -1.4919249862126154      -0.99799529964547151        0.0000000000000000                1
  -1.0665570927178181      -0.98536715466716196        0.0000000000000000                1
  0.94517410836462401      -0.98799025605311930        0.0000000000000000                1
   1.5018254772521133       -1.0236334388129067        0.0000000000000000                1
   2.0005270779001769      -0.98630007077806570        0.0000000000000000                1
   2.5518656390266372       -1.0308077525580024        0.0000000000000000                1
   2.9933114905565632      -0.91697590727123679        0.0000000000000000                1
   3.4350745970407370       -1.0465638357451856        0.0000000000000000                1
  -3.4672139732983562      -0.47906813571745155        0.0000000000000000                1
  -2.9875989471150075      -0.49427691278783942        0.0000000000000000                1
  -2.4902925846312711      -0.49553086162634180        0.0000000000000000                1
  -1.9679195550522808      -0.49352293536187025        0.0000000000000000                1
  -1.3780525113257689      -0.48473721020971411        0.0000000000000000                1
  -1.0747196788441045      -0.67272800840434843        0.0000000000000000                1
  0.98646911734312781      -0.47692068630507745        0.0000000000000000                1
   1.5074351647274811      -0.48235929604578770        0.0000000000000000                1
   2.4848646313528864      -0.48309299808074696        0.0000000000000000                1
   2.9888877107217353      -0.52756125453843006        0.0000000000000000                1
   3.4871481463330185      -0.49777153635945787        0.0000000000000000                1
  -3.4371429110049960        7.2152192844310943E-003   0.0000000000000000                1
  -2.9967909696439743        3.3818892693879385E-003   0.0000000000000000                1
  -2.4987818198898752        9.2787756524816793E-003   0.0000000000000000                1
  -1.9647221116277918        3.7187151543900732E-003   0.0000000000000000                1
  -1.4425179419084675        3.1304990217119076E-003   0.0000000000000000                1
   2.9823454101813200       -6.6056686633982336E-004   0.0000000000000000                1
   3.4889833099180017       -3.7531281120151356E-003   0.0000000000000000                1
  -3.4290168516948256       0.34751177620145191        0.0000000000000000                1
  -3.0889429157417272       0.55364173039361042        0.0000000000000000                1
  -2.5039594084066907       0.51714486734181153        0.0000000000000000                1
  -1.9701919493259439       0.50047586212744677        0.0000000000000000                1
  -1.3780189173067101       0.48304094919767798        0.0000000000000000                1
  -1.0674512077862386       0.64031645590493214        0.0000000000000000                1
  0.99175820740268716       0.49217049851251221        0.0000000000000000                1
   1.5037774909102621       0.49428805819815219        0.0000000000000000                1
   2.4824065611715853       0.48248878966612685        0.0000000000000000                1
   2.9969478478363984       0.50298892455244659        0.0000000000000000                1
   3.4799135418815017       0.51955317055114680        0.0000000000000000                1
  -2.9382688839597315        1.0615676113442318        0.0000000000000000                1
  -2.4911677905427903        1.0105132009574023        0.0000000000000000                1
  -1.9874615497776071        1.0017374468316189        0.0000000000000000                1
  -1.4783157553812349       0.99864604526216205        0.0000000000000000                1
 -0.96427763187074567       0.96293097985714682        0.0000000000000000                1
 -0.63949035696639778        1.0590931681175659        0.0000000000000000                1
  0.59079108116594026       0.98636862892160093        0.0000000000000000                1
  0.96799613500582604       0.96245652670177995        0.0000000000000000                1
   1.4947477379497112        1.0220829756505123        0.0000000000000000                1
   1.9940718346161146       0.98224266551165318        0.0000000000000000                1
   2.4987156577927361       0.99328148045892872        0.0000000000000000                1
   3.0002165934402605        1.0062283254951774        0.0000000000000000                1
  -2.8655262589755086        1.3712502813177940        0.0000000000000000                1
  -2.5189424256079764        1.5200866897280065        0.0000000000000000                1
  -2.0058875286019449        1.4931327767027562        0.0000000000000000                1
  -1.5069475193469177        1.5009575182000945        0.0000000000000000                1
 -0.99755505447583970        1.4784034956175165        0.0000000000000000                1
 -0.43927597172142369        1.3636037704827595        0.0000000000000000                1
  -8.0405630684295421E-003   1.5788039379332957        0.0000000000000000                1
  0.55670175634104424        1.1701425426251508        0.0000000000000000                1
  0.86515755421945928        1.5107717801345997        0.0000000000000000                1
   1.4807775506980103        1.4225131859226601        0.0000000000000000                1
   1.9539891288366005        1.5428856014787837        0.0000000000000000                1
   2.5069924606952934        1.5100757602375612        0.0000000000000000                1
   2.9640909131959328        1.4521438344829651        0.0000000000000000                1
  -2.3707681757862322        1.8654945665597600        0.0000000000000000                1
  -2.0600144887529277        1.9373047897490299        0.0000000000000000                1
  -1.5501333086814102        2.0839604472065250        0.0000000000000000                1
 -0.99375358608548603        1.9778956706346689        0.0000000000000000                1
 -0.49667367266617146        1.9703442927590107        0.0000000000000000                1
  -1.4416402729895255E-002   2.0051744809420202        0.0000000000000000                1
  0.46095827178879217        2.0216295698753393        0.0000000000000000                1
  0.95635562287735709        2.0088564185825577        0.0000000000000000                1
   1.5336338976070476        2.0810652529063232        0.0000000000000000                1
   2.0894257804260530        1.9115176686400641        0.0000000000000000                1
   2.3796649561002123        1.9581942335900464        0.0000000000000000                1
  -1.3460816361540695        2.4261424503081792        0.0000000000000000                1
  -1.0050273888966652        2.4322026043930083        0.0000000000000000                1
 -0.52081407629696030        2.4641724638938554        0.0000000000000000                1
  -6.6702448345333197E-003   2.4860766862941293        0.0000000000000000                1
  0.50760132449378148        2.4756826441404729        0.0000000000000000                1
  0.99407375871213666        2.4424439871571897        0.0000000000000000                1
   1.3395536935635162        2.4297812950841688        0.0000000000000000                1
  0.56485158399767910       -1.8515186786223929        0.0000000000000000                1
  0.67182537128332154       -1.7183044290265497        0.0000000000000000                1
  0.75963562842822308       -1.4893817606000033        0.0000000000000000                1
  0.79326674572044420       -1.2494546736385257        0.0000000000000000                1
   1.0258363425855217       -1.2481446065533497        0.0000000000000000                1
  0.79188974538631807       -1.0870338764695815        0.0000000000000000                1
   1.2259194854050324       -1.2136019574615962        0.0000000000000000                1
   1.2378357064997751       -1.0071614519063008        0.0000000000000000                1
   1.7773512475215729       -1.2151622671074302        0.0000000000000000                1
   1.9953388976335198       -1.2401042403396403        0.0000000000000000                1
   1.7569700943926376       -1.0052702282340042        0.0000000000000000                1
   2.2176766685915710       -1.2230567923555236        0.0000000000000000                1
   2.2501970947139109       -1.0049957210327785        0.0000000000000000                1
   3.7639410478403637       -1.2476478920830787        0.0000000000000000                1
   3.7374784878991747       -1.0272793743394810        0.0000000000000000                1
  0.97830981419852669      -0.75617977645031753        0.0000000000000000                1
  0.97887396223973322      -0.60087965989449876        0.0000000000000000                1
   1.2434842176695491      -0.70881864523803551        0.0000000000000000                1
   1.5076834998339321      -0.77382265219499535        0.0000000000000000                1
   1.2489378393286956      -0.51231401613717198        0.0000000000000000                1
   1.1023438189897097      -0.60145941200422104        0.0000000000000000                1
   1.1179205590374870      -0.50014520901752890        0.0000000000000000                1
   1.3924130768847158      -0.60379274792263415        0.0000000000000000                1
   1.5124775329966507      -0.60291363743062509        0.0000000000000000                1
   1.3809826436944044      -0.50129732158041052        0.0000000000000000                1
   1.7588510525964720      -0.71086882991698130        0.0000000000000000                1
   2.0013893917924093      -0.73088175863969040        0.0000000000000000                1
   1.6175424862312080      -0.45407975484817914        0.0000000000000000                1
   2.2486008286322683      -0.69513716875403975        0.0000000000000000                1
   2.5252889732537374      -0.73592525405746589        0.0000000000000000                1
   2.3243001990606689      -0.53445746282232731        0.0000000000000000                1
   2.7264560131461471      -0.71139527679495862        0.0000000000000000                1
   2.7354654696584992      -0.51342165108129012        0.0000000000000000                1
   3.2626004205144916      -0.71776980799854484        0.0000000000000000                1
   3.4656518849762166      -0.74902463518700824        0.0000000000000000                1
   3.2447550683377591      -0.51439200039662125        0.0000000000000000                1
   3.7306970777697379      -0.75129971871357903        0.0000000000000000                1
   3.7246891670559830      -0.48913162039454644        0.0000000000000000                1
   1.0174727485571060      -0.24664352471812481        0.0000000000000000                1
   1.0043237222844472      -0.35814230519623347        0.0000000000000000                1
   1.0191375591540512      -0.16816180172752507        0.0000000000000000                1
   1.2498696283593609      -0.24852668702167677        0.0000000000000000                1
   1.4771709065032250      -0.24434689685764677        0.0000000000000000                1
   1.2496764738524273        1.4631141309628995E-003   0.0000000000000000                1
   1.1248833499036368      -0.37214063678856402        0.0000000000000000                1
   1.2502643676782392      -0.37651661524521435        0.0000000000000000                1
   1.1249069639380593      -0.24984696157720032        0.0000000000000000                1
   1.3773435063272128      -0.37226475298223977        0.0000000000000000                1
   1.5131629763066865      -0.35809128106730792        0.0000000000000000                1
   1.3748369589682075      -0.25008889575897753        0.0000000000000000                1
   1.0967087715042503      -0.12063376814906097        0.0000000000000000                1
   1.2491892162994891      -0.12287025626989885        0.0000000000000000                1
   1.1147991208603105        4.0366225118335531E-003   0.0000000000000000                1
   1.3981739290592596      -0.12495566403377101        0.0000000000000000                1
   1.4705512663300440      -0.17236894873740294        0.0000000000000000                1
   1.3839715211049164        3.2109257248279417E-004   0.0000000000000000                1
   1.5977482963868193      -0.39268611917326829        0.0000000000000000                1
   2.5335586766960900      -0.32295930117887506        0.0000000000000000                1
   2.6883835415136277      -0.24612492773638067        0.0000000000000000                1
   2.9828239707717379      -0.25564642621156425        0.0000000000000000                1
   2.7229670127585677       -9.9517923936292283E-004   0.0000000000000000                1
   3.2429926502521349      -0.25463711374279469        0.0000000000000000                1
   3.4853801050558171      -0.24935822091413304        0.0000000000000000                1
   3.2471966485735542        9.5075890793023198E-004   0.0000000000000000                1
   3.7087652253652705      -0.23849384241818611        0.0000000000000000                1
   3.6917402831811921       -5.3180508549728837E-003   0.0000000000000000                1
   1.0385166723966508       0.25568207908293777        0.0000000000000000                1
   1.0376181058556901       0.18007587069206671        0.0000000000000000                1
   1.0245029994995205       0.36493831847463243        0.0000000000000000                1
  0.91262533556473235       0.53912366646301202        0.0000000000000000                1
   1.2518044551017307       0.25011239554422582        0.0000000000000000                1
   1.4772290990798518       0.24497894861808342        0.0000000000000000                1
   1.2515848261688833       0.51353696796344772        0.0000000000000000                1
   1.1052377795967281       0.12950925339025049        0.0000000000000000                1
   1.2509105762504020       0.12538537871197375        0.0000000000000000                1
   1.1324429131967015       0.25398021833355244        0.0000000000000000                1
   1.3984155562627605       0.12550029793196329        0.0000000000000000                1
   1.4705804008040715       0.17248960836915189        0.0000000000000000                1
   1.3751413536265391       0.25083796392743007        0.0000000000000000                1
   1.1310049319498252       0.37527941769623213        0.0000000000000000                1
   1.2518667043518423       0.37755137247684029        0.0000000000000000                1
   1.1249949621524289       0.50436240229920681        0.0000000000000000                1
   1.3772617615744069       0.37394771062042459        0.0000000000000000                1
   1.5137203205153056       0.36258872088054483        0.0000000000000000                1
   1.3801494439746755       0.50425224289987136        0.0000000000000000                1
   1.7226518974563150       0.52731734170971445        0.0000000000000000                1
   1.6000775457613208       0.40034382739761809        0.0000000000000000                1
   1.6321077986775037       0.48831021800323332        0.0000000000000000                1
   2.5335561948906622       0.32067095518479150        0.0000000000000000                1
   2.3204106853818409       0.53341005597570634        0.0000000000000000                1
   2.6893358643975671       0.24142086999638471        0.0000000000000000                1
   2.9860062545601682       0.24956055700098626        0.0000000000000000                1
   2.7384710559634464       0.49972129787332037        0.0000000000000000                1
   3.2520926632801621       0.25499701225560245        0.0000000000000000                1
   3.5358439232761363       0.26231074225970608        0.0000000000000000                1
   3.2540779435666307       0.50535887360010545        0.0000000000000000                1
   3.6902390795147562       0.15744569824441362        0.0000000000000000                1
  0.76139475223252140       0.76438097113794390        0.0000000000000000                1
   1.0238049964620102       0.76404364558941362        0.0000000000000000                1
  0.75856129605863010        1.0145567319567503        0.0000000000000000                1
  0.90109781453827931       0.61375418093885092        0.0000000000000000                1
   1.0153761127024727       0.62095462783417332        0.0000000000000000                1
  0.85534002942967191       0.73597998268220610        0.0000000000000000                1
  0.62090840986447116       0.89482764440284246        0.0000000000000000                1
  0.73062194173447825       0.85614933451484732        0.0000000000000000                1
  0.85138818529563631       0.85541823541547124        0.0000000000000000                1
   1.2515550580950492       0.71069744594153383        0.0000000000000000                1
   1.4991001494908944       0.77473842228281764        0.0000000000000000                1
   1.2380194663957786        1.0028618173078261        0.0000000000000000                1
   1.1151300630502194       0.60640012367812179        0.0000000000000000                1
   1.3906367959079151       0.60684714626295988        0.0000000000000000                1
   1.5021872326456254       0.61343579373954127        0.0000000000000000                1
   1.7392627741351512       0.68296509597591881        0.0000000000000000                1
   1.9956981681173878       0.72328205513388688        0.0000000000000000                1
   1.7475620829908187        1.0010127023522486        0.0000000000000000                1
   1.6115600557511336       0.59963913309803052        0.0000000000000000                1
   2.2397940202438011       0.68880281044215852        0.0000000000000000                1
   2.4983454397817728       0.73757323746379200        0.0000000000000000                1
   2.2439847811790261       0.98519937138754166        0.0000000000000000                1
   2.7473400807572421       0.74791204518924803        0.0000000000000000                1
   3.0042930375237025       0.75823346868922836        0.0000000000000000                1
   2.7534463904774493        1.0023517395007573        0.0000000000000000                1
   3.2923536249680438       0.77820742308414292        0.0000000000000000                1
   3.4627875408030233       0.68199811905936925        0.0000000000000000                1
   3.2191358699793837        1.0277246506850919        0.0000000000000000                1
 -0.17682264775282075        1.1959153741929673        0.0000000000000000                1
   7.1065268794719989E-003   1.2536911597565432        0.0000000000000000                1
  0.28114620322249723        1.2610718820239786        0.0000000000000000                1
  0.77460704100476341        1.1586176200910689        0.0000000000000000                1
  0.97336781331198730        1.2029478967368479        0.0000000000000000                1
   1.1997575181517453        1.2067889771004408        0.0000000000000000                1
   1.7651169200915025        1.2155193807949616        0.0000000000000000                1
   1.9726009070408304        1.2463864050510243        0.0000000000000000                1
   2.2431127261981567        1.2551138339013468        0.0000000000000000                1
   2.5041523554548810        1.2560689820366215        0.0000000000000000                1
   2.2539821086299141        1.5220200107934048        0.0000000000000000                1
   2.7582873210582481        1.2562575227434767        0.0000000000000000                1
   3.0233681768209539        1.2662977990500466        0.0000000000000000                1
   2.7822090684254839        1.5294638277075965        0.0000000000000000                1
   3.1890340792489384        1.1819087483110153        0.0000000000000000                1
   2.2807312680968201        1.7188899724711617        0.0000000000000000                1
   2.5069660449881841        1.7759580220729123        0.0000000000000000                1
   2.7099633960452714        1.7150139525187933        0.0000000000000000                1
  -1.8360869494087346       -4.5537001441048632        0.0000000000000000                1
  -1.5214410546782784       -4.6993536080157909        0.0000000000000000                1
  -1.0942253656484946       -4.8474239237665788        0.0000000000000000                1
 -0.56609301717543536       -4.9597397257780989        0.0000000000000000                1
  -7.3478807948841188E-016  -5.0000000000000000        0.0000000000000000                1
  0.56609301717543381       -4.9597397257780989        0.0000000000000000                1
   1.0942253656484933       -4.8474239237665788        0.0000000000000000                1
   1.5214410546782771       -4.6993536080157909        0.0000000000000000                1
   1.8360869494087366       -4.5537001441048623        0.0000000000000000                1
   2.2191453789651887       -4.3279714222056427        0.0000000000000000                1
   2.5496959589947572       -4.0820529711031579        0.0000000000000000                1
   2.8284271247461898       -3.8284271247461907        0.0000000000000000                1
   3.0820529711031575       -3.5496959589947585        0.0000000000000000                1
   3.3279714222056418       -3.2191453789651900        0.0000000000000000                1
   3.5537001441048632       -2.8360869494087346        0.0000000000000000                1
   3.6993536080157905       -2.5214410546782786        0.0000000000000000                1
   3.8467356422867813       -2.0966425572448406        0.0000000000000000                1
   3.9519258311357977       -1.6182897582862232        0.0000000000000000                1