 VARIABLES = "X", "Y", "Z", "Material ID"
 ZONE F=FEPOINT, ET=QUADRILATERAL, N=         454 E=         384
  -1.3462559424047027       -4.4278730568883491        0.0000000000000000                1
  -1.0050629907757140       -4.4346094130026819        0.0000000000000000                1
 -0.51891573975396765       -4.4630306703324072        0.0000000000000000                1
  -3.3150218429610837E-006  -4.4771280922212737        0.0000000000000000                1
  0.51891086474200743       -4.4630314409554028        0.0000000000000000                1
   1.0050624083090487       -4.4346123091607792        0.0000000000000000                1
   1.3462579537555435       -4.4278766941511520        0.0000000000000000                1
  -2.3715683446138112       -3.8660780820028093        0.0000000000000000                1
  -2.0615160992546100       -3.9391091884444220        0.0000000000000000                1
  -1.5522217570461960       -4.0886258657453407        0.0000000000000000                1
 -0.99946519187600336       -3.9928760089286079        0.0000000000000000                1
 -0.50169237781613663       -3.9798550182425458        0.0000000000000000                1
  -8.7526451773172686E-006  -3.9797335878558675        0.0000000000000000                1
  0.50169320960262209       -3.9798541791390929        0.0000000000000000                1
  0.99950551330056947       -3.9928975617922546        0.0000000000000000                1
   1.5522822442812338       -4.0886652897887679        0.0000000000000000                1
   2.0615679376823506       -3.9391480648736943        0.0000000000000000                1
   2.3715938697370111       -3.8660988980131861        0.0000000000000000                1
  -2.8661689379769788       -3.3716568983494479        0.0000000000000000                1
  -2.5213083115604866       -3.5213260161899265        0.0000000000000000                1
  -2.0120310764527156       -3.4967446247072247        0.0000000000000000                1
  -1.5168933435659653       -3.5105596680095932        0.0000000000000000                1
  -1.0069032949357433       -3.5017661108575626        0.0000000000000000                1
 -0.50181040299718127       -3.4877262528183883        0.0000000000000000                1
   3.9057265438477204E-005  -3.4848263060278080        0.0000000000000000                1
  0.50204767709692044       -3.4875481477911698        0.0000000000000000                1
   1.0074198041457663       -3.5017321331526783        0.0000000000000000                1
   1.5174641451351512       -3.5107401084283878        0.0000000000000000                1
   2.0123915713137923       -3.4969382941415472        0.0000000000000000                1
   2.5214372945309740       -3.5214173875291745        0.0000000000000000                1
   2.8662147691462212       -3.3716980551555067        0.0000000000000000                1
  -2.9396894677552465       -3.0620048839539193        0.0000000000000000                1
  -2.4973229179468497       -3.0126153967980316        0.0000000000000000                1
  -2.0063410801249808       -3.0068145600898473        0.0000000000000000                1
  -1.5030767502536684       -3.0015313176082432        0.0000000000000000                1
  -1.0074888339485897       -2.9966658790345253        0.0000000000000000                1
 -0.52525932339544334       -2.9868915245596290        0.0000000000000000                1
  0.52727477775798026       -2.9845844832871400        0.0000000000000000                1
   1.0109923796069351       -2.9952388492533837        0.0000000000000000                1
   1.5061892928032383       -3.0017648240099355        0.0000000000000000                1
   2.0077772567688497       -3.0073667655640435        0.0000000000000000                1
   2.4976958636765723       -3.0128445241073232        0.0000000000000000                1
   2.9398294741871474       -3.0620660122395904        0.0000000000000000                1
  -3.4293077145409643       -2.3474317764497470        0.0000000000000000                1
  -3.0908667208648422       -2.5538258951064896        0.0000000000000000                1
  -2.5133745716137872       -2.5184422852764397        0.0000000000000000                1
  -2.0008455034227461       -2.5033533447499434        0.0000000000000000                1
  -1.4884658388174274       -2.4952878071384061        0.0000000000000000                1
 -0.99755337686340639       -2.5035225808610373        0.0000000000000000                1
 -0.56648885456125231       -2.5060040800181063        0.0000000000000000                1
  0.57603187283604973       -2.4900688619248470        0.0000000000000000                1
   1.0140191744478171       -2.4948744213629737        0.0000000000000000                1
   1.4998840069298272       -2.4955808497247198        0.0000000000000000                1
   2.0034862232408415       -2.5043347857443723        0.0000000000000000                1
   2.5131067451376610       -2.5180827816404610        0.0000000000000000                1
   3.0914377065591712       -2.5530241299516407        0.0000000000000000                1
   3.4311000440700643       -2.3476233901070245        0.0000000000000000                1
  -3.4374994685325655       -2.0069665822758438        0.0000000000000000                1
  -2.9989935218987998       -2.0030500958894226        0.0000000000000000                1
  -2.5089989122954504       -2.0079818342549332        0.0000000000000000                1
  -1.9975514488219686       -1.9984357131565595        0.0000000000000000                1
  -1.4789980480815526       -1.9849121008451551        0.0000000000000000                1
 -0.89243547390769951       -1.9659067089035898        0.0000000000000000                1
 -0.57657938342773796       -2.1730499283545002        0.0000000000000000                1
  0.59409285041417936       -2.0806689024907334        0.0000000000000000                1
  0.96828802427231264       -1.9585375298828636        0.0000000000000000                1
   1.4986192936877178       -1.9877132298576801        0.0000000000000000                1
   1.9972173290191406       -2.0003252314309283        0.0000000000000000                1
   2.5019904211538599       -2.0039951656264723        0.0000000000000000                1
   3.0002589484240931       -1.9936270910558838        0.0000000000000000                1
   3.4455555781880327       -2.0034728616140800        0.0000000000000000                1
  -3.4674655561425110       -1.5205912481040975        0.0000000000000000                1
  -2.9890639352583408       -1.5047331242113335        0.0000000000000000                1
  -2.4973555767517701       -1.5006400625949354        0.0000000000000000                1
  -1.9943890822880039       -1.4954295553160983        0.0000000000000000                1
  -1.4913361299550327       -1.4813108653669724        0.0000000000000000                1
  -1.0076493407761917       -1.4324084585558072        0.0000000000000000                1
   1.0557843751550917       -1.5340134929656082        0.0000000000000000                1
   1.5041246246600462       -1.4193151217668660        0.0000000000000000                1
   1.9918738188326743       -1.5568499030556178        0.0000000000000000                1
   2.4511227084519160       -1.4525718929715699        0.0000000000000000                1
   2.9911926945476739       -1.4837414161031608        0.0000000000000000                1
   3.5177927603759200       -1.4754404688947751        0.0000000000000000                1
  -3.4821204898337701      -0.99990109883428357        0.0000000000000000                1
  -2.9896019764194799      -0.99938805837032862        0.0000000000000000                1
  -2.4920918125561458      -0.99762996074039045        0.0000000000000000                1
  -1.9824734811459024      -0.99425930310807031        0.0000000000000000                1
  -1.4919259241969618      -0.99799376881310375        0.0000000000000000                1
  -1.0665595607664371      -0.98536018623321298        0.0000000000000000                1
  0.94517411261981787      -0.98799038658986549        0.0000000000000000                1
   1.5018269798531139       -1.0236341134762963        0.0000000000000000                1
   2.0005263323565354      -0.98630237686631272        0.0000000000000000                1
   2.5518636176517226       -1.0308024586475868        0.0000000000000000                1
   2.9933151966109914      -0.91695580802774956        0.0000000000000000                1
   3.4350838227012002       -1.0465275514020937        0.0000000000000000                1
  -3.4672613005046249      -0.47925917255164990        0.0000000000000000                1
  -2.9876157929935747      -0.49432986955085195        0.0000000000000000                1
  -2.4902982690025541      -0.49554412502204859        0.0000000000000000                1
  -1.9679219704391677      -0.49352651387823127        0.0000000000000000                1
  -1.3780551080852765      -0.48473515124843697        0.0000000000000000                1
  -1.0747231672992912      -0.67271826861453154        0.0000000000000000                1
  0.98646230499658205      -0.47694114778997793        0.0000000000000000                1
   1.5074322738339763      -0.48235864923501892        0.0000000000000000                1
   2.4848565298870273      -0.48308448457290654        0.0000000000000000                1
   2.9888895475436486      -0.52755557843725887        0.0000000000000000                1
   3.4871502016752820      -0.49777975148936476        0.0000000000000000                1
  -3.4371921961132901        7.0076445506039291E-003   0.0000000000000000                1
  -2.9968177890632903        3.3021189360784662E-003   0.0000000000000000                1
  -2.4987940578768799        9.2508845913815401E-003   0.0000000000000000                1
  -1.9647266352919723        3.7088507861133342E-003   0.0000000000000000                1
  -1.4425243412382593        3.1167400524026653E-003   0.0000000000000000                1
   2.9823489552663141       -6.6186917335097446E-004   0.0000000000000000                1
   3.4889958389231839       -3.7981373036973017E-003   0.0000000000000000                1
  -3.4290541836914255       0.34740115798421267        0.0000000000000000                1
  -3.0890151799795138       0.55350319911961099        0.0000000000000000                1
  -2.5039784050203835       0.51710575613662502        0.0000000000000000                1
  -1.9701966318526236       0.50046323741850274        0.0000000000000000                1
  -1.3780241186455620       0.48301807629670146        0.0000000000000000                1
  -1.0674504474830038       0.64030457918674233        0.0000000000000000                1
  0.99174293311040618       0.49219606322272025        0.0000000000000000                1
   1.5037758627148583       0.49428845261927601        0.0000000000000000                1
   2.4823983927622972       0.48248047559203228        0.0000000000000000                1
   2.9969568426750905       0.50296938551139925        0.0000000000000000                1
   3.4799213040141805       0.51955255401831479        0.0000000000000000                1
  -2.9383220233914473        1.0614561059892351        0.0000000000000000                1
  -2.4911790060526280        1.0104854788486675        0.0000000000000000                1
  -1.9874594580399574        1.0017317185164201        0.0000000000000000                1
  -1.4783091239952051       0.99864457183543265        0.0000000000000000                1
 -0.96426991477284252       0.96293434150960500        0.0000000000000000                1
 -0.63948347997255373        1.0590967607646229        0.0000000000000000                1
  0.59079212771859924       0.98636634721964722        0.0000000000000000                1
  0.96799781495763915       0.96245553343684109        0.0000000000000000                1
   1.4947461169171881        1.0220846474508971        0.0000000000000000                1
   1.9940705787487523       0.98224471068793073        0.0000000000000000                1
   2.4987123998287024       0.99328358177386156        0.0000000000000000                1
   3.0001812169988265        1.0062732076566581        0.0000000000000000                1
  -2.8654901973186164        1.3712785857958036        0.0000000000000000                1
  -2.5189414925877145        1.5200854747512484        0.0000000000000000                1
  -2.0058606402330921        1.4931431675377731        0.0000000000000000                1
  -1.5069093694963827        1.5009756534356056        0.0000000000000000                1
 -0.99752759665286661        1.4784155636275051        0.0000000000000000                1
 -0.43926589771487945        1.3636086425901177        0.0000000000000000                1
  -8.0393667576519005E-003   1.5788067446741147        0.0000000000000000                1
  0.55670860477745376        1.1701424179570348        0.0000000000000000                1
  0.86514011796822987        1.5107794899183791        0.0000000000000000                1
   1.4807583376629838        1.4225206705048299        0.0000000000000000                1
   1.9539813212430275        1.5428826664086659        0.0000000000000000                1
   2.5070587356213387        1.5100133075434341        0.0000000000000000                1
   2.9640732323560499        1.4521824080183952        0.0000000000000000                1
  -2.3707965307598351        1.8654584557227807        0.0000000000000000                1
  -2.0599030868231614        1.9373578351597560        0.0000000000000000                1
  -1.5499948656938096        2.0840326596583676        0.0000000000000000                1
 -0.99367394509558682        1.9779225230265067        0.0000000000000000                1
 -0.49662081194133206        1.9703611153914349        0.0000000000000000                1
  -1.4415969934119812E-002   2.0051880143197010        0.0000000000000000                1
  0.46090693113078990        2.0216456578118427        0.0000000000000000                1
  0.95628084693692073        2.0088802208131971        0.0000000000000000                1
   1.5335166777955500        2.0811224793900482        0.0000000000000000                1
   2.0894189702187758        1.9114916693540160        0.0000000000000000                1
   2.3799085235686745        1.9579761114297871        0.0000000000000000                1
  -1.3459710142481083        2.4261797957845914        0.0000000000000000                1
  -1.0048198054046291        2.4322519115234251        0.0000000000000000                1
 -0.52062299526208722        2.4642198016337384        0.0000000000000000                1
  -6.6701449487692067E-003   2.4861023407464979        0.0000000000000000                1
  0.50741074685838661        2.4757296748051640        0.0000000000000000                1
  0.99386819006831917        2.4424919064903086        0.0000000000000000                1
   1.3394463470630433        2.4298163433728663        0.0000000000000000                1
  0.56483991780074527       -1.8515536738314147        0.0000000000000000                1
  0.67181140247909288       -1.7183463369165015        0.0000000000000000                1
  0.75962898295928205       -1.4894017084421676        0.0000000000000000                1
  0.79327220625791162       -1.2494383084221883        0.0000000000000000                1
   1.0258370863599260       -1.2481425248835110        0.0000000000000000                1
  0.79189881854127664       -1.0870066701714607        0.0000000000000000                1
   1.2259195409995434       -1.2136023494650687        0.0000000000000000                1
   1.2378358014507425       -1.0071622364730490        0.0000000000000000                1
   1.7773517069915339       -1.2151626259788972        0.0000000000000000                1
   1.9953389302283215       -1.2401040786784401        0.0000000000000000                1
   1.7569724586419415       -1.0052715642687111        0.0000000000000000                1
   2.2176762381838504       -1.2230558646468319        0.0000000000000000                1
   2.2501929111239001       -1.0049971101739312        0.0000000000000000                1
   3.7639618954780096       -1.2475527239317006        0.0000000000000000                1
   3.7374853544273945       -1.0272788931291559        0.0000000000000000                1
  0.97830785588853042      -0.75618577530020781        0.0000000000000000                1
  0.97887192207879992      -0.60088583488429026        0.0000000000000000                1
   1.2434838746701600      -0.70882033808914102        0.0000000000000000                1
   1.5076850295637811      -0.77382258137628424        0.0000000000000000                1
   1.2489376820529221      -0.51231558272808908        0.0000000000000000                1
   1.1023424977762890      -0.60146352070756870        0.0000000000000000                1
   1.1179188146155115      -0.50015064973727119        0.0000000000000000                1
   1.3924128338977422      -0.60379288097368189        0.0000000000000000                1
   1.5124756528202257      -0.60291150039393926        0.0000000000000000                1
   1.3809831587778252      -0.50129870639749041        0.0000000000000000                1
   1.7588633808402521      -0.71087180075841960        0.0000000000000000                1
   2.0013904870683494      -0.73088848814537954        0.0000000000000000                1
   1.6175193541313677      -0.45406441111276796        0.0000000000000000                1
   2.2485760545617115      -0.69514717577446605        0.0000000000000000                1
   2.5252811163628617      -0.73592468679389444        0.0000000000000000                1
   2.3242595756752511      -0.53447466851749192        0.0000000000000000                1
   2.7264549762087040      -0.71139057379812498        0.0000000000000000                1
   2.7354671263364017      -0.51341181043465245        0.0000000000000000                1
   3.2626019063398015      -0.71776567421183457        0.0000000000000000                1
   3.4656540657690833      -0.74902549304335020        0.0000000000000000                1
   3.2447564481452025      -0.51439233038146159        0.0000000000000000                1
   3.7307007811644870      -0.75132982956788485        0.0000000000000000                1
   3.7246883511601414      -0.48913721623001438        0.0000000000000000                1
   1.0174749719865794      -0.24663709057699149        0.0000000000000000                1
   1.0043189825410963      -0.35815656781435468        0.0000000000000000                1
   1.0191410556242619      -0.16815173881476242        0.0000000000000000                1
   1.2498694305869347      -0.24852700118756102        0.0000000000000000                1
   1.4771744893253060      -0.24434340104410465        0.0000000000000000                1
   1.2496761422518645        1.4544750118170367E-003   0.0000000000000000                1
   1.1248821396841828      -0.37214444474259517        0.0000000000000000                1
   1.2502644248600381      -0.37651771869627526        0.0000000000000000                1
   1.1249068514195477      -0.24984767653908935        0.0000000000000000                1
   1.3773452649406148      -0.37226671148701757        0.0000000000000000                1
   1.5131718164338570      -0.35810419702113894        0.0000000000000000                1
   1.3748376238410349      -0.25008706052982843        0.0000000000000000                1
   1.0967077146396453      -0.12064012341822440        0.0000000000000000                1
   1.2491885854526756      -0.12287260303129646        0.0000000000000000                1
   1.1147987046083414        4.0113991787763710E-003   0.0000000000000000                1
   1.3981716205857821      -0.12494746446076004        0.0000000000000000                1
   1.4705450374844273      -0.17234586443547881        0.0000000000000000                1
   1.3839707996705628        3.1919727651600959E-004   0.0000000000000000                1
   1.5977423859660671      -0.39268891128215028        0.0000000000000000                1
   2.5335759845174564      -0.32291854256141250        0.0000000000000000                1
   2.6883940741670629      -0.24609971333368319        0.0000000000000000                1
   2.9828268735202452      -0.25564236631643567        0.0000000000000000                1
   2.7229743373519919       -9.9547579477281744E-004   0.0000000000000000                1
   3.2429948776114550      -0.25464207970757413        0.0000000000000000                1
   3.4853871824257658      -0.24938207269229298        0.0000000000000000                1
   3.2471992207482825        9.4286195525610569E-004   0.0000000000000000                1
   3.7087809055347565      -0.23853903681054794        0.0000000000000000                1
   3.6917888765951052       -5.4862310646200674E-003   0.0000000000000000                1
   1.0385211537827637       0.25565688419869592        0.0000000000000000                1
   1.0376240040977429       0.18002527762017415        0.0000000000000000                1
   1.0245021577586153       0.36493364832437925        0.0000000000000000                1
  0.91259502074204346       0.53917602238499429        0.0000000000000000                1
   1.2518050225588402       0.25010550317649105        0.0000000000000000                1
   1.4772327441648203       0.24497519330963685        0.0000000000000000                1
   1.2515845760520972       0.51353789052151699        0.0000000000000000                1
   1.1052419139288927       0.12946801496935570        0.0000000000000000                1
   1.2509109263193963       0.12537365087759625        0.0000000000000000                1
   1.1324445208895861       0.25396573479189138        0.0000000000000000                1
   1.3984133992693284       0.12548922835266774        0.0000000000000000                1
   1.4705741958665119       0.17246620011634275        0.0000000000000000                1
   1.3751422112112093       0.25083434127868731        0.0000000000000000                1
   1.1310040451755468       0.37527743374164585        0.0000000000000000                1
   1.2518669473819275       0.37755019591506028        0.0000000000000000                1
   1.1249920571698524       0.50436672125205706        0.0000000000000000                1
   1.3772637103006349       0.37394907823751833        0.0000000000000000                1
   1.5137296473046031       0.36260183276610092        0.0000000000000000                1
   1.3801502036386444       0.50425363283794766        0.0000000000000000                1
   1.7226431088098366       0.52730620161302666        0.0000000000000000                1
   1.6000724997737730       0.40034714860572823        0.0000000000000000                1
   1.6320895072935746       0.48829761818122402        0.0000000000000000                1
   2.5335736035482581       0.32063003782541943        0.0000000000000000                1
   2.3203700150042872       0.53342739198466538        0.0000000000000000                1
   2.6893469746327625       0.24139447023213365        0.0000000000000000                1
   2.9860110752680407       0.24955141847890716        0.0000000000000000                1
   2.7384734812914724       0.49971030886787388        0.0000000000000000                1
   3.2520965194293021       0.25498749788466579        0.0000000000000000                1
   3.5358465727260522       0.26228689260675547        0.0000000000000000                1
   3.2540967511008980       0.50532316630868579        0.0000000000000000                1
   3.6902946383431772       0.15725429254213211        0.0000000000000000                1
  0.76140742707086506       0.76436907338426763        0.0000000000000000                1
   1.0238038630607444       0.76404666624282580        0.0000000000000000                1
  0.75856579127753654        1.0145533580384076        0.0000000000000000                1
  0.90108194872617875       0.61378114567405417        0.0000000000000000                1
   1.0153693831887756       0.62096648263108956        0.0000000000000000                1
  0.85534296593562398       0.73597961096952302        0.0000000000000000                1
  0.62092470617234252       0.89481305311124371        0.0000000000000000                1
  0.73063788484362868       0.85613658309221263        0.0000000000000000                1
  0.85139296289479338       0.85541464662221789        0.0000000000000000                1
   1.2515544668670793       0.71069893212486801        0.0000000000000000                1
   1.4991013278672327       0.77473881752799401        0.0000000000000000                1
   1.2380181286438026        1.0028628176260435        0.0000000000000000                1
   1.1151274862730016       0.60640462919240534        0.0000000000000000                1
   1.3906367849777010       0.60684743488736359        0.0000000000000000                1
   1.5021863636728425       0.61343486385151025        0.0000000000000000                1
   1.7392713980910548       0.68296657780174796        0.0000000000000000                1
   1.9956986358139948       0.72328860593568267        0.0000000000000000                1
   1.7475620812258714        1.0010145307967317        0.0000000000000000                1
   1.6115576567832526       0.59963608208556674        0.0000000000000000                1
   2.2397690848704315       0.68881324610258299        0.0000000000000000                1
   2.4983364371483083       0.73757555094937033        0.0000000000000000                1
   2.2439813885424997       0.98520076184385519        0.0000000000000000                1
   2.7473363121121972       0.74791226245780318        0.0000000000000000                1
   3.0042954523019922       0.75822103352501768        0.0000000000000000                1
   2.7534336412448868        1.0023684790428100        0.0000000000000000                1
   3.2924171217824720       0.77807889862219792        0.0000000000000000                1
   3.4628886592650590       0.68181270520395709        0.0000000000000000                1
   3.2190661372241118        1.0278129422155413        0.0000000000000000                1
 -0.17683358351107228        1.1959140720293358        0.0000000000000000                1
   7.1079978390839044E-003   1.2536883457339472        0.0000000000000000                1
  0.28116421254445922        1.2610682641282449        0.0000000000000000                1
  0.77460803299889747        1.1586175125691336        0.0000000000000000                1
  0.97336586641348943        1.2029490478562848        0.0000000000000000                1
   1.1997538543455248        1.2067907975145480        0.0000000000000000                1
   1.7651134042693080        1.2155210866933241        0.0000000000000000                1
   1.9725996366904739        1.2463857159613669        0.0000000000000000                1
   2.2431189552009680        1.2551067390270747        0.0000000000000000                1
   2.5041671308183253        1.2560555594113947        0.0000000000000000                1
   2.2540094470000755        1.5219907648727655        0.0000000000000000                1
   2.7582855821498051        1.2562686623685770        0.0000000000000000                1
   3.0232561838414589        1.2664558153210006        0.0000000000000000                1
   2.7823110733315106        1.5293657784883274        0.0000000000000000                1
   3.1888440056621712        1.1821798535718615        0.0000000000000000                1
   2.2807911282024316        1.7188294142599452        0.0000000000000000                1
   2.5071812074346482        1.7757626840875449        0.0000000000000000                1
   2.7101689113145424        1.7148123159887751        0.0000000000000000                1
  -1.8352552004991638       -4.5541297597359574        0.0000000000000000                1
  -1.5221432775621804       -4.6990647253829261        0.0000000000000000                1
  -1.0931989076102098       -4.8477157052464062        0.0000000000000000                1
 -0.56568479012159556       -4.9597980653342777        0.0000000000000000                1
   1.0268320444352680E-006  -4.9999999999998685        0.0000000000000000                1
  0.56568479012159756       -4.9597980653342777        0.0000000000000000                1
   1.0931989076102120       -4.8477157052464044        0.0000000000000000                1
   1.5221432775621857       -4.6990647253829234        0.0000000000000000                1
   1.8352552004991689       -4.5541297597359547        0.0000000000000000                1
   2.2188005656794063       -4.3282013234990373        0.0000000000000000                1
   2.5501009552529044       -4.0817178842357107        0.0000000000000000                1
   2.8284278508259986       -3.8284263986661951        0.0000000000000000                1
   3.0817178842357098       -3.5501009552529057        0.0000000000000000                1
   3.3282013234990386       -3.2188005656794050        0.0000000000000000                1
   3.5541297597359574       -2.8352552004991640        0.0000000000000000                1
   3.6990647253829261       -2.5221432775621806        0.0000000000000000                1
   3.8469058604071189       -2.0960453006903341        0.0000000000000000                1
   3.9520688128103041       -1.6173751686067019        0.0000000000000000                1