 VARIABLES = "X", "Y", "Z", "Material ID"
 ZONE F=FEPOINT, ET=QUADRILATERAL, N=         755 E=         692
  -20.000000000000000       -20.000000000000000        0.0000000000000000                1
  -18.000000000000000       -20.000000000000000        0.0000000000000000                1
  -16.000000000000000       -20.000000000000000        0.0000000000000000                1
  -14.000000000000000       -20.000000000000000        0.0000000000000000                1
  -12.000000000000000       -20.000000000000000        0.0000000000000000                1
  -10.000000000000000       -20.000000000000000        0.0000000000000000                1
  -8.0000000000000000       -20.000000000000000        0.0000000000000000                1
  -6.0000000000000000       -20.000000000000000        0.0000000000000000                1
  -4.0000000000000000       -20.000000000000000        0.0000000000000000                1
  -2.0000000000000000       -20.000000000000000        0.0000000000000000                1
   0.0000000000000000       -20.000000000000000        0.0000000000000000                1
   2.0000000000000000       -20.000000000000000        0.0000000000000000                1
   4.0000000000000000       -20.000000000000000        0.0000000000000000                1
   6.0000000000000000       -20.000000000000000        0.0000000000000000                1
   8.0000000000000000       -20.000000000000000        0.0000000000000000                1
   10.000000000000000       -20.000000000000000        0.0000000000000000                1
   12.000000000000000       -20.000000000000000        0.0000000000000000                1
   14.000000000000000       -20.000000000000000        0.0000000000000000                1
   16.000000000000000       -20.000000000000000        0.0000000000000000                1
   18.000000000000000       -20.000000000000000        0.0000000000000000                1
   20.000000000000000       -20.000000000000000        0.0000000000000000                1
  -20.000000000000000       -18.000000000000000        0.0000000000000000                1
  -17.999999912630063       -17.999999912630344        0.0000000000000000                1
  -15.999999611599305       -17.999999639640343        0.0000000000000000                1
  -13.999998681616038       -17.999998874061195        0.0000000000000000                1
  -11.999996477341243       -17.999997230002275        0.0000000000000000                1
  -9.9999925455841954       -17.999994549578446        0.0000000000000000                1
  -7.9999875065026869       -17.999991264589976        0.0000000000000000                1
  -5.9999836313053061       -17.999988318283659        0.0000000000000000                1
  -3.9999840220162435       -17.999986503990439        0.0000000000000000                1
  -1.9999904069836145       -17.999985849281511        0.0000000000000000                1
  -1.2781453445789496E-006  -17.999985768480741        0.0000000000000000                1
   1.9999877105004980       -17.999985840138240        0.0000000000000000                1
   3.9999810703637220       -17.999986326324908        0.0000000000000000                1
   5.9999806468668604       -17.999987840605236        0.0000000000000000                1
   7.9999849094338353       -17.999990544116152        0.0000000000000000                1
   9.9999906586268885       -17.999993798160197        0.0000000000000000                1
   11.999995347863296       -17.999996646459991        0.0000000000000000                1
   13.999998129553665       -17.999998526141749        0.0000000000000000                1
   15.999999393621048       -17.999999478996802        0.0000000000000000                1
   17.999999846752203       -17.999999858006426        0.0000000000000000                1
   20.000000000000000       -18.000000000000000        0.0000000000000000                1
  -20.000000000000000       -16.000000000000000        0.0000000000000000                1
  -17.999999639631273       -15.999999611593969        0.0000000000000000                1
  -15.999998251855931       -15.999998251869194        0.0000000000000000                1
  -13.999993521440686       -15.999994061635734        0.0000000000000000                1
  -11.999981272801614       -15.999984355278023        0.0000000000000000                1
  -9.9999576826991010       -15.999967697858295        0.0000000000000000                1
  -7.9999253417175975       -15.999946912914128        0.0000000000000000                1
  -5.9998984499484420       -15.999928909056470        0.0000000000000000                1
  -3.9998983812162674       -15.999919447603235        0.0000000000000000                1
  -1.9999382475044121       -15.999917964846231        0.0000000000000000                1
  -8.8455314487428276E-006  -15.999918892144585        0.0000000000000000                1
   1.9999192699900106       -15.999918325979333        0.0000000000000000                1
   3.9998769988572302       -15.999918562042254        0.0000000000000000                1
   5.9998764877239577       -15.999925419055071        0.0000000000000000                1
   7.9999062951709377       -15.999941277472413        0.0000000000000000                1
   9.9999441377891820       -15.999961811924356        0.0000000000000000                1
   11.999973469044585       -15.999979920373480        0.0000000000000000                1
   13.999989908234280       -15.999991552482003        0.0000000000000000                1
   15.999996920001360       -15.999997171657881        0.0000000000000000                1
   17.999999266131596       -15.999999271275250        0.0000000000000000                1
   20.000000000000000       -16.000000000000000        0.0000000000000000                1
  -20.000000000000000       -14.000000000000000        0.0000000000000000                1
  -17.999998873960717       -13.999998681533679        0.0000000000000000                1
  -15.999994061259342       -13.999993521218476        0.0000000000000000                1
  -13.999975876625806       -13.999975877097617        0.0000000000000000                1
  -11.999923739085771       -13.999930985650602        0.0000000000000000                1
  -9.9998135163401223       -13.999848266282763        0.0000000000000000                1
  -7.9996494449907312       -13.999741459609613        0.0000000000000000                1
  -5.9995004373665992       -13.999651692164690        0.0000000000000000                1
  -3.9994844082321857       -13.999614245824871        0.0000000000000000                1
  -1.9996813321797595       -13.999622446776430        0.0000000000000000                1
  -4.7408414727640899E-005  -13.999636386188920        0.0000000000000000                1
   1.9995773374262302       -13.999628099036187        0.0000000000000000                1
   3.9993629291967632       -13.999612636520252        0.0000000000000000                1
   5.9993733802050162       -13.999631769184578        0.0000000000000000                1
   7.9995398118473355       -13.999706288770541        0.0000000000000000                1
   9.9997375713991818       -13.999811584054605        0.0000000000000000                1
   11.999881936319424       -13.999904398424151        0.0000000000000000                1
   13.999957711643752       -13.999961763067292        0.0000000000000000                1
   15.999987870846693       -13.999987923930334        0.0000000000000000                1
   17.999997276909117       -13.999997065972208        0.0000000000000000                1
   20.000000000000000       -14.000000000000000        0.0000000000000000                1
  -20.000000000000000       -12.000000000000000        0.0000000000000000                1
  -17.999997229244990       -11.999996476613166        0.0000000000000000                1
  -15.999984351738350       -11.999981269932956        0.0000000000000000                1
  -13.999930974428745       -11.999923732698321        0.0000000000000000                1
  -11.999760119806492       -11.999760132423244        0.0000000000000000                1
  -9.9993547422411471       -11.999426550902925        0.0000000000000000                1
  -7.9986831188906642       -11.998967194569078        0.0000000000000000                1
  -5.9980043439106048       -11.998585199236368        0.0000000000000000                1
  -3.9978555100316799       -11.998469565089001        0.0000000000000000                1
  -1.9986423666552222       -11.998576788632766        0.0000000000000000                1
  -1.9813661462566453E-004  -11.998681954741848        0.0000000000000000                1
   1.9981942993815878       -11.998627068338722        0.0000000000000000                1
   3.9973072646458410       -11.998485951797697        0.0000000000000000                1
   5.9974185177038448       -11.998495143493072        0.0000000000000000                1
   7.9981814912112519       -11.998788608585107        0.0000000000000000                1
   9.9990187459050457       -11.999241920005455        0.0000000000000000                1
   11.999585348714342       -11.999633212337558        0.0000000000000000                1
   13.999860550936130       -11.999861512808542        0.0000000000000000                1
   15.999962364026469       -11.999958837170750        0.0000000000000000                1
   17.999992025484818       -11.999990586503877        0.0000000000000000                1
   20.000000000000000       -12.000000000000000        0.0000000000000000                1
  -20.000000000000000       -10.000000000000000        0.0000000000000000                1
  -17.999994545345299       -9.9999925408993029        0.0000000000000000                1
  -15.999967675158164       -9.9999576611671692        0.0000000000000000                1
  -13.999848176135343       -9.9998134455674670        0.0000000000000000                1
  -11.999426304292252       -9.9993546094547483        0.0000000000000000                1
  -9.9982728483050565       -9.9982730976821532        0.0000000000000000                1
  -7.9960405267510835       -9.9965855999506008        0.0000000000000000                1
  -5.9934245083931641       -9.9951348130201101        0.0000000000000000                1
  -3.9925163007616407       -9.9948579382943077        0.0000000000000000                1
  -1.9951027029748718       -9.9955199829534802        0.0000000000000000                1
  -6.4090150441899771E-004  -9.9960782361679286        0.0000000000000000                1
   1.9935859383570991       -9.9958450364699818        0.0000000000000000                1
   3.9905368532447545       -9.9950541584131791        0.0000000000000000                1
   5.9912505467584447       -9.9948073835497606        0.0000000000000000                1
   7.9942023592435758       -9.9958318389053638        0.0000000000000000                1
   9.9970992843622248       -9.9975150070442389        0.0000000000000000                1
   11.998860832128850       -9.9988735177802450        0.0000000000000000                1
   13.999640625218353       -9.9996010052395601        0.0000000000000000                1
   15.999908676424292       -9.9998889229311398        0.0000000000000000                1
   17.999981641291900       -9.9999761095475872        0.0000000000000000                1
   20.000000000000000       -10.000000000000000        0.0000000000000000                1
  -20.000000000000000       -8.0000000000000000        0.0000000000000000                1
  -17.999991246723127       -7.9999874834590958        0.0000000000000000                1
  -15.999946805176727       -7.9999252233951097        0.0000000000000000                1
  -13.999740967365495       -7.9996489918508846        0.0000000000000000                1
  -11.998965510008592       -7.9986818576666865        0.0000000000000000                1
  -9.9965816564479830       -7.9960385612662348        0.0000000000000000                1
  -7.9906903737362116       -7.9906939274039326        0.0000000000000000                1
  -5.9818041562305551       -7.9853504031163842        0.0000000000000000                1
  -3.9772863066613198       -7.9850311821938647        0.0000000000000000                1
  -1.9845886764253637       -7.9881211798291352        0.0000000000000000                1
  -1.5695716778519283E-003  -7.9902108142581598        0.0000000000000000                1
   1.9805827691783857       -7.9897830867817676        0.0000000000000000                1
   3.9715028577734488       -7.9862981086319689        0.0000000000000000                1
   5.9751845669561430       -7.9843431633587176        0.0000000000000000                1
   7.9852253997554250       -7.9879422295953013        0.0000000000000000                1
   9.9933635898100022       -7.9934748481533315        0.0000000000000000                1
   11.997584865643843       -7.9972598084363717        0.0000000000000000                1
   13.999288814416122       -7.9991018948463921        0.0000000000000000                1
   15.999828537832538       -7.9997665701193119        0.0000000000000000                1
   17.999966855203034       -7.9999526337921765        0.0000000000000000                1
   20.000000000000000       -8.0000000000000000        0.0000000000000000                1
  -20.000000000000000       -6.0000000000000000        0.0000000000000000                1
  -17.999988261091989       -5.9999835429218971        0.0000000000000000                1
  -15.999928525374713       -5.9998979509495172        0.0000000000000000                1
  -13.999649717173900       -5.9994983109993951        0.0000000000000000                1
  -11.998577409074905       -5.9979974894703458        0.0000000000000000                1
  -9.9951119553342416       -5.9934085516062918        0.0000000000000000                1
  -7.9853052254654759       -5.9817837454393246        0.0000000000000000                1
  -5.9577533666184301       -5.9577883480962415        0.0000000000000000                1
  -3.9355318920663453       -5.9609798997356602        0.0000000000000000                1
  -1.9574480297687293       -5.9766058113625489        0.0000000000000000                1
  -2.7479458884227372E-003  -5.9752260757231257        0.0000000000000000                1
   1.9494992896885277       -5.9835394467783072        0.0000000000000000                1
   3.9216857487324237       -5.9674333723927511        0.0000000000000000                1
   5.9405218522317886       -5.9546966241910386        0.0000000000000000                1
   7.9718698118755942       -5.9724652361652266        0.0000000000000000                1
   9.9884573931417808       -5.9864000475554677        0.0000000000000000                1
   11.996211838710980       -5.9949217651708055        0.0000000000000000                1
   13.998944267168218       -5.9984741642027473        0.0000000000000000                1
   15.999752514640276       -5.9996282556067833        0.0000000000000000                1
   17.999952856095195       -5.9999282664722564        0.0000000000000000                1
   20.000000000000000       -6.0000000000000000        0.0000000000000000                1
  -20.000000000000000       -4.0000000000000000        0.0000000000000000                1
  -17.999986365429219       -3.9999837539152234        0.0000000000000000                1
  -15.999918424736428       -3.9998967381582649        0.0000000000000000                1
  -13.999608380334239       -3.9994767452217639        0.0000000000000000                1
  -11.998443398573016       -3.9978281863119109        0.0000000000000000                1
  -9.9947687124566986       -3.9924430492269312        0.0000000000000000                1
  -7.9848072627293734       -3.9771456378919168        0.0000000000000000                1
  -5.9606163090751467       -3.9353829331345844        0.0000000000000000                1
  -3.7651341117918924       -3.7653508227148742        0.0000000000000000                1
  -1.9315841597069741       -4.1962150020950348        0.0000000000000000                1
  -3.2753184641396886E-003  -3.6809681712290594        0.0000000000000000                1
   1.9218734861678206       -4.2155307818586438        0.0000000000000000                1
   3.7394377281304290       -3.8018473314598746        0.0000000000000000                1
   5.9169893525224584       -3.9183614102237798        0.0000000000000000                1
   7.9579659160391136       -3.9467349241991458        0.0000000000000000                1
   9.9866959102183657       -3.9797073118447228        0.0000000000000000                1
   11.995848012180776       -3.9933883737321745        0.0000000000000000                1
   13.998836561554908       -3.9981639828660196        0.0000000000000000                1
   15.999721804773982       -3.9995754794332750        0.0000000000000000                1
   17.999945885244585       -3.9999211664658891        0.0000000000000000                1
   20.000000000000000       -4.0000000000000000        0.0000000000000000                1
  -20.000000000000000       -2.0000000000000000        0.0000000000000000                1
  -17.999985598878222       -1.9999897560027393        0.0000000000000000                1
  -15.999915951958137       -1.9999339764715742        0.0000000000000000                1
  -13.999609728963103       -1.9996598184066334        0.0000000000000000                1
  -11.998513279691455       -1.9985587660665400        0.0000000000000000                1
  -9.9952716046152990       -1.9948552101337800        0.0000000000000000                1
  -7.9873811474307796       -1.9840450551928450        0.0000000000000000                1
  -5.9750040032171228       -1.9566013353744627        0.0000000000000000                1
  -4.1942537259451873       -1.9307652456885445        0.0000000000000000                1
  -1.8699408645193389       -1.8702451517400513        0.0000000000000000                1
  -3.1288582479437866E-003  -1.9328929166132605        0.0000000000000000                1
   1.8649296850786656       -1.9119924472028218        0.0000000000000000                1
   4.1542733002180157       -2.1485013864528733        0.0000000000000000                1
   5.8212693281079577       -1.7649819604369312        0.0000000000000000                1
   7.9793097824834609       -1.9430766164112907        0.0000000000000000                1
   9.9916152388512760       -1.9830528540808834        0.0000000000000000                1
   11.996806109042726       -1.9950174143159753        0.0000000000000000                1
   13.998988599803187       -1.9986887599050445        0.0000000000000000                1
   15.999738144001341       -1.9997068535729168        0.0000000000000000                1
   17.999946274776679       -1.9999468489502790        0.0000000000000000                1
   20.000000000000000       -2.0000000000000000        0.0000000000000000                1
  -20.000000000000000        0.0000000000000000        0.0000000000000000                1
  -17.999985447200604        3.0946954956199092E-017   0.0000000000000000                1
  -15.999916089182552       -5.2498419928057584E-017   0.0000000000000000                1
  -13.999617008584723        2.0123121059036417E-016   0.0000000000000000                1
  -11.998574659884952        5.2883914935889050E-015   0.0000000000000000                1
  -9.9956010532550721        9.1947729916124201E-014   0.0000000000000000                1
  -7.9885182533931935        1.1602348188369412E-012   0.0000000000000000                1
  -5.9706888748752265        8.9628786320709571E-012   0.0000000000000000                1
  -3.6719975706103569        1.0998916832568746E-010   0.0000000000000000                1
  -1.9260650232031309        6.0947702255267245E-010   0.0000000000000000                1
   2.0276456689629461        2.3241171469994278E-006   0.0000000000000000                1
   4.0397952753078661        4.8663640879402857E-008   0.0000000000000000                1
   6.2627755271700991        1.4798907959146898E-009   0.0000000000000000                1
   8.0072583673538897        4.0507972637828765E-010   0.0000000000000000                1
   9.9957575793553524        4.1572614542854223E-011   0.0000000000000000                1
   11.997529798123518        3.2517770425628308E-012   0.0000000000000000                1
   13.999107442174560        2.0207620310267613E-013   0.0000000000000000                1
   15.999754097492874        9.9835198109941582E-015   0.0000000000000000                1
   17.999947767747926        3.0606077116290477E-016   0.0000000000000000                1
   20.000000000000000        0.0000000000000000        0.0000000000000000                1
  -20.000000000000000        2.0000000000000000        0.0000000000000000                1
  -17.999985598878222        1.9999897560027393        0.0000000000000000                1
  -15.999915951958137        1.9999339764715742        0.0000000000000000                1
  -13.999609728963105        1.9996598184066339        0.0000000000000000                1
  -11.998513279691544        1.9985587660665525        0.0000000000000000                1
  -9.9952716046171908        1.9948552101340160        0.0000000000000000                1
  -7.9873811474624814        1.9840450551964612        0.0000000000000000                1
  -5.9750040036047141        1.9566013354177294        0.0000000000000000                1
  -4.1942537276316161        1.9307652458626778        0.0000000000000000                1
  -1.8699409932674176        1.8702451642852604        0.0000000000000000                1
  -3.1382678990848835E-003   1.9328938596647822        0.0000000000000000                1
   1.8649173993548591        1.9119938051609036        0.0000000000000000                1
   4.1542727218288222        2.1485014596265199        0.0000000000000000                1
   5.8212692544348634        1.7649819708142866        0.0000000000000000                1
   7.9793097764960912        1.9430766172936824        0.0000000000000000                1
   9.9916152384072117        1.9830528541613299        0.0000000000000000                1
   11.996806109014486        1.9950174143220822        0.0000000000000000                1
   13.998988599801688        1.9986887599054208        0.0000000000000000                1
   15.999738144001276        1.9997068535729354        0.0000000000000000                1
   17.999946274776672        1.9999468489502794        0.0000000000000000                1
   20.000000000000000        2.0000000000000000        0.0000000000000000                1
  -20.000000000000000        4.0000000000000000        0.0000000000000000                1
  -17.999986365429219        3.9999837539152234        0.0000000000000000                1
  -15.999918424736428        3.9998967381582649        0.0000000000000000                1
  -13.999608380334243        3.9994767452217639        0.0000000000000000                1
  -11.998443398573160        3.9978281863119256        0.0000000000000000                1
  -9.9947687124597806        3.9924430492272429        0.0000000000000000                1
  -7.9848072627840683        3.9771456378974124        0.0000000000000000                1
  -5.9606163098986373        3.9353829332166796        0.0000000000000000                1
  -3.7651341242087795        3.7653508239551630        0.0000000000000000                1
  -1.9315842758420305        4.1962150138240668        0.0000000000000000                1
  -3.2764968470840317E-003   3.6809682916284236        0.0000000000000000                1
   1.9218731265697813        4.2155308201481860        0.0000000000000000                1
   3.7394374114992872        3.8018473672042594        0.0000000000000000                1
   5.9169893050704614        3.9183614158415789        0.0000000000000000                1
   7.9579659103681086        3.9467349249011909        0.0000000000000000                1
   9.9866959097209804        3.9797073119078479        0.0000000000000000                1
   11.995848012145844        3.9933883737369382        0.0000000000000000                1
   13.998836561552924        3.9981639828663149        0.0000000000000000                1
   15.999721804773891        3.9995754794332901        0.0000000000000000                1
   17.999945885244585        3.9999211664658900        0.0000000000000000                1
   20.000000000000000        4.0000000000000000        0.0000000000000000                1
  -20.000000000000000        6.0000000000000000        0.0000000000000000                1
  -17.999988261091989        5.9999835429218971        0.0000000000000000                1
  -15.999928525374715        5.9998979509495172        0.0000000000000000                1
  -13.999649717173904        5.9994983109993960        0.0000000000000000                1
  -11.998577409075047        5.9979974894703609        0.0000000000000000                1
  -9.9951119553372116        5.9934085516065840        0.0000000000000000                1
  -7.9853052255165231        5.9817837454443854        0.0000000000000000                1
  -5.9577533673354619        5.9577883481677301        0.0000000000000000                1
  -3.9355318992833186        5.9609799004615507        0.0000000000000000                1
  -1.9574480843011950        5.9766058168970595        0.0000000000000000                1
  -2.7480501413493564E-003   5.9752260863746836        0.0000000000000000                1
   1.9494992080137876        5.9835394552964303        0.0000000000000000                1
   3.9216857101412645        5.9674333766054923        0.0000000000000000                1
   5.9405218368199009        5.9546966259166441        0.0000000000000000                1
   7.9718698093894345        5.9724652364503346        0.0000000000000000                1
   9.9884573928606102        5.9864000475884147        0.0000000000000000                1
   11.996211838687707        5.9949217651735749        0.0000000000000000                1
   13.998944267166737        5.9984741642029284        0.0000000000000000                1
   15.999752514640203        5.9996282556067921        0.0000000000000000                1
   17.999952856095192        5.9999282664722564        0.0000000000000000                1
   20.000000000000000        6.0000000000000000        0.0000000000000000                1
  -20.000000000000000        8.0000000000000000        0.0000000000000000                1
  -17.999991246723127        7.9999874834590958        0.0000000000000000                1
  -15.999946805176727        7.9999252233951097        0.0000000000000000                1
  -13.999740967365499        7.9996489918508855        0.0000000000000000                1
  -11.998965510008688        7.9986818576666980        0.0000000000000000                1
  -9.9965816564498446        7.9960385612664195        0.0000000000000000                1
  -7.9906903737640809        7.9906939274067001        0.0000000000000000                1
  -5.9818041565312514        7.9853504031464624        0.0000000000000000                1
  -3.9772863088760917        7.9850311824170559        0.0000000000000000                1
  -1.9845886832137769        7.9881211805164716        0.0000000000000000                1
  -1.5695821448001852E-003   7.9902108153256508        0.0000000000000000                1
   1.9805827599468941        7.9897830877369538        0.0000000000000000                1
   3.9715028525520140        7.9862981091861567        0.0000000000000000                1
   5.9751845648145041        7.9843431635925901        0.0000000000000000                1
   7.9852253991373852        7.9879422296638669        0.0000000000000000                1
   9.9933635897158908        7.9934748481639160        0.0000000000000000                1
   11.997584865634096        7.9972598084374802        0.0000000000000000                1
   13.999288814415394        7.9991018948464747        0.0000000000000000                1
   15.999828537832498        7.9997665701193155        0.0000000000000000                1
   17.999966855203031        7.9999526337921765        0.0000000000000000                1
   20.000000000000000        8.0000000000000000        0.0000000000000000                1
  -20.000000000000000        10.000000000000000        0.0000000000000000                1
  -17.999994545345299        9.9999925408993029        0.0000000000000000                1
  -15.999967675158164        9.9999576611671692        0.0000000000000000                1
  -13.999848176135345        9.9998134455674670        0.0000000000000000                1
  -11.999426304292298        9.9993546094547554        0.0000000000000000                1
  -9.9982728483058274        9.9982730976822314        0.0000000000000000                1
  -7.9960405267601882        9.9965855999515068        0.0000000000000000                1
  -5.9934245084650071        9.9951348130272990        0.0000000000000000                1
  -3.9925163010498994        9.9948579383232783        0.0000000000000000                1
  -1.9951027036273157        9.9955199830193422        0.0000000000000000                1
  -6.4090241685245029E-004   9.9960782362606615        0.0000000000000000                1
   1.9935859375197216        9.9958450365560463        0.0000000000000000                1
   3.9905368527145448        9.9950541584686281        0.0000000000000000                1
   5.9912505465149710        9.9948073835757825        0.0000000000000000                1