 VARIABLES = "X", "Y", "Z", "Material ID"
 ZONE F=FEPOINT, ET=QUADRILATERAL, N=         755 E=         692
  -20.000000000000000       -20.000000000000000        0.0000000000000000                1
  -18.000000000000000       -20.000000000000000        0.0000000000000000                1
  -16.000000000000000       -20.000000000000000        0.0000000000000000                1
  -14.000000000000000       -20.000000000000000        0.0000000000000000                1
  -12.000000000000000       -20.000000000000000        0.0000000000000000                1
  -10.000000000000000       -20.000000000000000        0.0000000000000000                1
  -8.0000000000000000       -20.000000000000000        0.0000000000000000                1
  -6.0000000000000000       -20.000000000000000        0.0000000000000000                1
  -4.0000000000000000       -20.000000000000000        0.0000000000000000                1
  -2.0000000000000000       -20.000000000000000        0.0000000000000000                1
   0.0000000000000000       -20.000000000000000        0.0000000000000000                1
   2.0000000000000000       -20.000000000000000        0.0000000000000000                1
   4.0000000000000000       -20.000000000000000        0.0000000000000000                1
   6.0000000000000000       -20.000000000000000        0.0000000000000000                1
   8.0000000000000000       -20.000000000000000        0.0000000000000000                1
   10.000000000000000       -20.000000000000000        0.0000000000000000                1
   12.000000000000000       -20.000000000000000        0.0000000000000000                1
   14.000000000000000       -20.000000000000000        0.0000000000000000                1
   16.000000000000000       -20.000000000000000        0.0000000000000000                1
   18.000000000000000       -20.000000000000000        0.0000000000000000                1
   20.000000000000000       -20.000000000000000        0.0000000000000000                1
  -20.000000000000000       -18.000000000000000        0.0000000000000000                1
  -17.999999912630063       -17.999999912630344        0.0000000000000000                1
  -15.999999611599305       -17.999999639640343        0.0000000000000000                1
  -13.999998681616038       -17.999998874061195        0.0000000000000000                1
  -11.999996477341243       -17.999997230002275        0.0000000000000000                1
  -9.9999925455841954       -17.999994549578446        0.0000000000000000                1
  -7.9999875065026869       -17.999991264589976        0.0000000000000000                1
  -5.9999836313053061       -17.999988318283659        0.0000000000000000                1
  -3.9999840220162430       -17.999986503990439        0.0000000000000000                1
  -1.9999904069836141       -17.999985849281511        0.0000000000000000                1
  -1.2781453440449286E-006  -17.999985768480741        0.0000000000000000                1
   1.9999877105004982       -17.999985840138240        0.0000000000000000                1
   3.9999810703637224       -17.999986326324908        0.0000000000000000                1
   5.9999806468668604       -17.999987840605236        0.0000000000000000                1
   7.9999849094338353       -17.999990544116152        0.0000000000000000                1
   9.9999906586268885       -17.999993798160197        0.0000000000000000                1
   11.999995347863296       -17.999996646459991        0.0000000000000000                1
   13.999998129553665       -17.999998526141749        0.0000000000000000                1
   15.999999393621048       -17.999999478996802        0.0000000000000000                1
   17.999999846752203       -17.999999858006426        0.0000000000000000                1
   20.000000000000000       -18.000000000000000        0.0000000000000000                1
  -20.000000000000000       -16.000000000000000        0.0000000000000000                1
  -17.999999639631273       -15.999999611593969        0.0000000000000000                1
  -15.999998251855931       -15.999998251869194        0.0000000000000000                1
  -13.999993521440686       -15.999994061635734        0.0000000000000000                1
  -11.999981272801614       -15.999984355278023        0.0000000000000000                1
  -9.9999576826990992       -15.999967697858295        0.0000000000000000                1
  -7.9999253417175966       -15.999946912914128        0.0000000000000000                1
  -5.9998984499484393       -15.999928909056470        0.0000000000000000                1
  -3.9998983812162621       -15.999919447603233        0.0000000000000000                1
  -1.9999382475044032       -15.999917964846230        0.0000000000000000                1
  -8.8455314370293326E-006  -15.999918892144583        0.0000000000000000                1
   1.9999192699900226       -15.999918325979332        0.0000000000000000                1
   3.9998769988572409       -15.999918562042250        0.0000000000000000                1
   5.9998764877239656       -15.999925419055071        0.0000000000000000                1
   7.9999062951709394       -15.999941277472413        0.0000000000000000                1
   9.9999441377891820       -15.999961811924356        0.0000000000000000                1
   11.999973469044585       -15.999979920373480        0.0000000000000000                1
   13.999989908234280       -15.999991552482003        0.0000000000000000                1
   15.999996920001360       -15.999997171657881        0.0000000000000000                1
   17.999999266131596       -15.999999271275250        0.0000000000000000                1
   20.000000000000000       -16.000000000000000        0.0000000000000000                1
  -20.000000000000000       -14.000000000000000        0.0000000000000000                1
  -17.999998873960717       -13.999998681533679        0.0000000000000000                1
  -15.999994061259342       -13.999993521218476        0.0000000000000000                1
  -13.999975876625806       -13.999975877097617        0.0000000000000000                1
  -11.999923739085771       -13.999930985650602        0.0000000000000000                1
  -9.9998135163401187       -13.999848266282763        0.0000000000000000                1
  -7.9996494449907232       -13.999741459609611        0.0000000000000000                1
  -5.9995004373665681       -13.999651692164685        0.0000000000000000                1
  -3.9994844082321088       -13.999614245824862        0.0000000000000000                1
  -1.9996813321796230       -13.999622446776412        0.0000000000000000                1
  -4.7408414543112460E-005  -13.999636386188900        0.0000000000000000                1
   1.9995773374264225       -13.999628099036165        0.0000000000000000                1
   3.9993629291969199       -13.999612636520236        0.0000000000000000                1
   5.9993733802051175       -13.999631769184568        0.0000000000000000                1
   7.9995398118473870       -13.999706288770534        0.0000000000000000                1
   9.9997375713992032       -13.999811584054603        0.0000000000000000                1
   11.999881936319429       -13.999904398424151        0.0000000000000000                1
   13.999957711643752       -13.999961763067292        0.0000000000000000                1
   15.999987870846693       -13.999987923930334        0.0000000000000000                1
   17.999997276909117       -13.999997065972208        0.0000000000000000                1
   20.000000000000000       -14.000000000000000        0.0000000000000000                1
  -20.000000000000000       -12.000000000000000        0.0000000000000000                1
  -17.999997229244990       -11.999996476613166        0.0000000000000000                1
  -15.999984351738350       -11.999981269932956        0.0000000000000000                1
  -13.999930974428745       -11.999923732698321        0.0000000000000000                1
  -11.999760119806492       -11.999760132423244        0.0000000000000000                1
  -9.9993547422411382       -11.999426550902923        0.0000000000000000                1
  -7.9986831188905994       -11.998967194569069        0.0000000000000000                1
  -5.9980043439103126       -11.998585199236331        0.0000000000000000                1
  -3.9978555100308344       -11.998469565088897        0.0000000000000000                1
  -1.9986423666535540       -11.998576788632562        0.0000000000000000                1
  -1.9813661227751806E-004  -11.998681954741560        0.0000000000000000                1
   1.9981942993840354       -11.998627068338429        0.0000000000000000                1
   3.9973072646477812       -11.998485951797468        0.0000000000000000                1
   5.9974185177050279       -11.998495143492931        0.0000000000000000                1
   7.9981814912117999       -11.998788608585043        0.0000000000000000                1
   9.9990187459052340       -11.999241920005433        0.0000000000000000                1
   11.999585348714385       -11.999633212337555        0.0000000000000000                1
   13.999860550936138       -11.999861512808542        0.0000000000000000                1
   15.999962364026469       -11.999958837170750        0.0000000000000000                1
   17.999992025484818       -11.999990586503877        0.0000000000000000                1
   20.000000000000000       -12.000000000000000        0.0000000000000000                1
  -20.000000000000000       -10.000000000000000        0.0000000000000000                1
  -17.999994545345299       -9.9999925408993029        0.0000000000000000                1
  -15.999967675158164       -9.9999576611671692        0.0000000000000000                1
  -13.999848176135343       -9.9998134455674670        0.0000000000000000                1
  -11.999426304292250       -9.9993546094547483        0.0000000000000000                1
  -9.9982728483050263       -9.9982730976821479        0.0000000000000000                1
  -7.9960405267507939       -9.9965855999505635        0.0000000000000000                1
  -5.9934245083912590       -9.9951348130198721        0.0000000000000000                1
  -3.9925163007544731       -9.9948579382934355        0.0000000000000000                1
  -1.9951027029585309       -9.9955199829514996        0.0000000000000000                1
  -6.4090148003613056E-004  -9.9960782361649922        0.0000000000000000                1
   1.9935859383824743       -9.9958450364669567        0.0000000000000000                1
   3.9905368532640675       -9.9950541584109089        0.0000000000000000                1
   5.9912505467694057       -9.9948073835484923        0.0000000000000000                1
   7.9942023592480966       -9.9958318389048486        0.0000000000000000                1
   9.9970992843634985       -9.9975150070440968        0.0000000000000000                1
   11.998860832129079       -9.9988735177802184        0.0000000000000000                1
   13.999640625218381       -9.9996010052395565        0.0000000000000000                1
   15.999908676424294       -9.9998889229311381        0.0000000000000000                1
   17.999981641291900       -9.9999761095475872        0.0000000000000000                1
   20.000000000000000       -10.000000000000000        0.0000000000000000                1
  -20.000000000000000       -8.0000000000000000        0.0000000000000000                1
  -17.999991246723127       -7.9999874834590958        0.0000000000000000                1
  -15.999946805176727       -7.9999252233951097        0.0000000000000000                1
  -13.999740967365495       -7.9996489918508846        0.0000000000000000                1
  -11.998965510008588       -7.9986818576666865        0.0000000000000000                1
  -9.9965816564479120       -7.9960385612662250        0.0000000000000000                1
  -7.9906903737353847       -7.9906939274038304        0.0000000000000000                1
  -5.9818041562234168       -7.9853504031155138        0.0000000000000000                1
  -3.9772863066182156       -7.9850311821886377        0.0000000000000000                1
  -1.9845886762975464       -7.9881211798137173        0.0000000000000000                1
  -1.5695714684487215E-003  -7.9902108142331096        0.0000000000000000                1
   1.9805827693941851       -7.9897830867563613        0.0000000000000000                1
   3.9715028579288161       -7.9862981086141120        0.0000000000000000                1
   5.9751845670370018       -7.9843431633496449        0.0000000000000000                1
   7.9852253997833813       -7.9879422295922202        0.0000000000000000                1
   9.9933635898157256       -7.9934748481527134        0.0000000000000000                1
   11.997584865644669       -7.9972598084362856        0.0000000000000000                1
   13.999288814416213       -7.9991018948463823        0.0000000000000000                1
   15.999828537832546       -7.9997665701193119        0.0000000000000000                1
   17.999966855203034       -7.9999526337921765        0.0000000000000000                1
   20.000000000000000       -8.0000000000000000        0.0000000000000000                1
  -20.000000000000000       -6.0000000000000000        0.0000000000000000                1
  -17.999988261091989       -5.9999835429218971        0.0000000000000000                1
  -15.999928525374713       -5.9998979509495172        0.0000000000000000                1
  -13.999649717173900       -5.9994983109993951        0.0000000000000000                1
  -11.998577409074899       -5.9979974894703449        0.0000000000000000                1
  -9.9951119553341368       -5.9934085516062767        0.0000000000000000                1
  -7.9853052254640229       -5.9817837454391478        0.0000000000000000                1
  -5.9577533666026214       -5.9577883480943088        0.0000000000000000                1
  -3.9355318919391551       -5.9609798997202450        0.0000000000000000                1
  -1.9574480289920051       -5.9766058112695752        0.0000000000000000                1
  -2.7479443459510482E-003  -5.9752260755399318        0.0000000000000000                1
   1.9494992911897944       -5.9835394466042926        0.0000000000000000                1
   3.9216857497421986       -5.9674333722808530        0.0000000000000000                1
   5.9405218527105417       -5.9546966241397250        0.0000000000000000                1
   7.9718698119825833       -5.9724652361541208        0.0000000000000000                1
   9.9884573931588516       -5.9864000475537411        0.0000000000000000                1
   11.996211838713007       -5.9949217651706048        0.0000000000000000                1
   13.998944267168408       -5.9984741642027295        0.0000000000000000                1
   15.999752514640290       -5.9996282556067815        0.0000000000000000                1
   17.999952856095195       -5.9999282664722555        0.0000000000000000                1
   20.000000000000000       -6.0000000000000000        0.0000000000000000                1
  -20.000000000000000       -4.0000000000000000        0.0000000000000000                1
  -17.999986365429219       -3.9999837539152234        0.0000000000000000                1
  -15.999918424736428       -3.9998967381582649        0.0000000000000000                1
  -13.999608380334237       -3.9994767452217639        0.0000000000000000                1
  -11.998443398573009       -3.9978281863119092        0.0000000000000000                1
  -9.9947687124565832       -3.9924430492269170        0.0000000000000000                1
  -7.9848072627278261       -3.9771456378917289        0.0000000000000000                1
  -5.9606163090574631       -3.9353829331324266        0.0000000000000000                1
  -3.7651341115901005       -3.7653508226903254        0.0000000000000000                1
  -1.9315841581723376       -4.1962150019109359        0.0000000000000000                1
  -3.2753059117558176E-003  -3.6809681697545420        0.0000000000000000                1
   1.9218734924949870       -4.2155307811359961        0.0000000000000000                1
   3.7394377349239996       -3.8018473307494687        0.0000000000000000                1
   5.9169893540108855       -3.9183614100787607        0.0000000000000000                1
   7.9579659162972423       -3.9467349241754262        0.0000000000000000                1
   9.9866959102511075       -3.9797073118417892        0.0000000000000000                1
   11.995848012184284       -3.9933883737318800        0.0000000000000000                1
   13.998836561555223       -3.9981639828659956        0.0000000000000000                1
   15.999721804774005       -3.9995754794332736        0.0000000000000000                1
   17.999945885244585       -3.9999211664658891        0.0000000000000000                1
   20.000000000000000       -4.0000000000000000        0.0000000000000000                1
  -20.000000000000000       -2.0000000000000000        0.0000000000000000                1
  -17.999985598878222       -1.9999897560027393        0.0000000000000000                1
  -15.999915951958137       -1.9999339764715742        0.0000000000000000                1
  -13.999609728963101       -1.9996598184066334        0.0000000000000000                1
  -11.998513279691448       -1.9985587660665396        0.0000000000000000                1
  -9.9952716046152119       -1.9948552101337715        0.0000000000000000                1
  -7.9873811474297653       -1.9840450551927362        0.0000000000000000                1
  -5.9750040032078413       -1.9566013353734291        0.0000000000000000                1
  -4.1942537259119135       -1.9307652456846025        0.0000000000000000                1
  -1.8699408632143253       -1.8702451515767313        0.0000000000000000                1
  -3.1287916272225900E-003  -1.9328929087811819        0.0000000000000000                1
   1.8649298242536270       -1.9119924323310238        0.0000000000000000                1
   4.1542733144933219       -2.1485013852043333        0.0000000000000000                1
   5.8212693309251451       -1.7649819602250796        0.0000000000000000                1
   7.9793097828217414       -1.9430766163870339        0.0000000000000000                1
   9.9916152388941590       -1.9830528540783101        0.0000000000000000                1
   11.996806109047304       -1.9950174143157393        0.0000000000000000                1
   13.998988599803589       -1.9986887599050263        0.0000000000000000                1
   15.999738144001370       -1.9997068535729157        0.0000000000000000                1
   17.999946274776679       -1.9999468489502790        0.0000000000000000                1
   20.000000000000000       -2.0000000000000000        0.0000000000000000                1
  -20.000000000000000        0.0000000000000000        0.0000000000000000                1
  -17.999985447200604        3.0946954956199092E-017   0.0000000000000000                1
  -15.999916089182552       -5.2498419928057584E-017   0.0000000000000000                1
  -13.999617008584723        1.9616581804051187E-016   0.0000000000000000                1
  -11.998574659884945        5.2949734901604869E-015   0.0000000000000000                1
  -9.9956010532550028        9.2018255106451580E-014   0.0000000000000000                1
  -7.9885182533925470        1.1610054326383052E-012   0.0000000000000000                1
  -5.9706888748714348        8.9686599692282991E-012   0.0000000000000000                1
  -3.6719975705812247        1.1005784891713006E-010   0.0000000000000000                1
  -1.9260650231460517        6.0982476032692864E-010   0.0000000000000000                1
   2.0276462204048582        2.3260031055465061E-006   0.0000000000000000                1
   4.0397952963020920        4.8703254200817077E-008   0.0000000000000000                1
   6.2627755282842053        1.4810981909087323E-009   0.0000000000000000                1
   8.0072583676784603        4.0541004688060954E-010   0.0000000000000000                1
   9.9957575794004221        4.1606498574452960E-011   0.0000000000000000                1
   11.997529798128429        3.2544461710216550E-012   0.0000000000000000                1
   13.999107442174996        2.0224812732074457E-013   0.0000000000000000                1
   15.999754097492904        9.9574494243677519E-015   0.0000000000000000                1
   17.999947767747926        2.7818810171264738E-016   0.0000000000000000                1
   20.000000000000000        0.0000000000000000        0.0000000000000000                1
  -20.000000000000000        2.0000000000000000        0.0000000000000000                1
  -17.999985598878222        1.9999897560027393        0.0000000000000000                1
  -15.999915951958137        1.9999339764715742        0.0000000000000000                1
  -13.999609728963105        1.9996598184066339        0.0000000000000000                1
  -11.998513279691538        1.9985587660665518        0.0000000000000000                1
  -9.9952716046171037        1.9948552101340078        0.0000000000000000                1
  -7.9873811474614884        1.9840450551963547        0.0000000000000000                1
  -5.9750040035956857        1.9566013354167260        0.0000000000000000                1
  -4.1942537275994001        1.9307652458588547        0.0000000000000000                1
  -1.8699409920430732        1.8702451641305480        0.0000000000000000                1
  -3.1382076829361396E-003   1.9328938525147237        0.0000000000000000                1
   1.8649175287271307        1.9119937913780487        0.0000000000000000                1
   4.1542727356343505        2.1485014584374262        0.0000000000000000                1
   5.8212692571920837        1.7649819706108834        0.0000000000000000                1
   7.9793097768294903        1.9430766172701441        0.0000000000000000                1
   9.9916152384497288        1.9830528541588222        0.0000000000000000                1
   11.996806109019037        1.9950174143218509        0.0000000000000000                1
   13.998988599802090        1.9986887599054028        0.0000000000000000                1
   15.999738144001302        1.9997068535729341        0.0000000000000000                1
   17.999946274776676        1.9999468489502792        0.0000000000000000                1
   20.000000000000000        2.0000000000000000        0.0000000000000000                1
  -20.000000000000000        4.0000000000000000        0.0000000000000000                1
  -17.999986365429219        3.9999837539152234        0.0000000000000000                1
  -15.999918424736428        3.9998967381582649        0.0000000000000000                1
  -13.999608380334243        3.9994767452217639        0.0000000000000000                1
  -11.998443398573151        3.9978281863119247        0.0000000000000000                1
  -9.9947687124596651        3.9924430492272300        0.0000000000000000                1
  -7.9848072627825548        3.9771456378972290        0.0000000000000000                1
  -5.9606163098814964        3.9353829332145800        0.0000000000000000                1
  -3.7651341240153031        3.7653508239315050        0.0000000000000000                1
  -1.9315842743876452        4.1962150136485592        0.0000000000000000                1
  -3.2764851321973034E-003   3.6809682902436371        0.0000000000000000                1
   1.9218731326204905        4.2155308194555863        0.0000000000000000                1
   3.7394374180380581        3.8018473665227215        0.0000000000000000                1
   5.9169893065203869        3.9183614157011228        0.0000000000000000                1
   7.9579659106216178        3.9467349248780428        0.0000000000000000                1
   9.9866959097533154        3.9797073119049644        0.0000000000000000                1
   11.995848012149322        3.9933883737366460        0.0000000000000000                1
   13.998836561553231        3.9981639828662905        0.0000000000000000                1
   15.999721804773914        3.9995754794332883        0.0000000000000000                1
   17.999945885244585        3.9999211664658896        0.0000000000000000                1
   20.000000000000000        4.0000000000000000        0.0000000000000000                1
  -20.000000000000000        6.0000000000000000        0.0000000000000000                1
  -17.999988261091989        5.9999835429218971        0.0000000000000000                1
  -15.999928525374715        5.9998979509495172        0.0000000000000000                1
  -13.999649717173904        5.9994983109993960        0.0000000000000000                1
  -11.998577409075040        5.9979974894703592        0.0000000000000000                1
  -9.9951119553371033        5.9934085516065716        0.0000000000000000                1
  -7.9853052255151029        5.9817837454442122        0.0000000000000000                1
  -5.9577533673201293        5.9577883481658507        0.0000000000000000                1
  -3.9355318991610564        5.9609799004466648        0.0000000000000000                1
  -1.9574480835626222        5.9766058168081733        0.0000000000000000                1
  -2.7480486729194267E-003   5.9752260861994326        0.0000000000000000                1
   1.9494992094549011        5.9835394551289234        0.0000000000000000                1
   3.9216857111206371        5.9674333764969534        0.0000000000000000                1
   5.9405218372862212        5.9546966258667258        0.0000000000000000                1
   7.9718698094944038        5.9724652364394615        0.0000000000000000                1
   9.9884573928774536        5.9864000475867130        0.0000000000000000                1
   11.996211838689710        5.9949217651733751        0.0000000000000000                1
   13.998944267166925        5.9984741642029107        0.0000000000000000                1
   15.999752514640218        5.9996282556067904        0.0000000000000000                1
   17.999952856095192        5.9999282664722564        0.0000000000000000                1
   20.000000000000000        6.0000000000000000        0.0000000000000000                1
  -20.000000000000000        8.0000000000000000        0.0000000000000000                1
  -17.999991246723127        7.9999874834590958        0.0000000000000000                1
  -15.999946805176727        7.9999252233951097        0.0000000000000000                1
  -13.999740967365499        7.9996489918508855        0.0000000000000000                1
  -11.998965510008683        7.9986818576666971        0.0000000000000000                1
  -9.9965816564497754        7.9960385612664098        0.0000000000000000                1
  -7.9906903737632726        7.9906939274065998        0.0000000000000000                1
  -5.9818041565243147        7.9853504031456142        0.0000000000000000                1
  -3.9772863088345067        7.9850311824119933        0.0000000000000000                1
  -1.9845886830906752        7.9881211805015599        0.0000000000000000                1
  -1.5695819427844098E-003   7.9902108153013947        0.0000000000000000                1
   1.9805827601559913        7.9897830877122695        0.0000000000000000                1
   3.9715028527034133        7.9862981091687315        0.0000000000000000                1
   5.9751845648936621        7.9843431635837083        0.0000000000000000                1
   7.9852253991648432        7.9879422296608418        0.0000000000000000                1
   9.9933635897215360        7.9934748481633040        0.0000000000000000                1
   11.997584865634913        7.9972598084373931        0.0000000000000000                1
   13.999288814415481        7.9991018948464649        0.0000000000000000                1
   15.999828537832503        7.9997665701193155        0.0000000000000000                1
   17.999966855203031        7.9999526337921765        0.0000000000000000                1
   20.000000000000000        8.0000000000000000        0.0000000000000000                1
  -20.000000000000000        10.000000000000000        0.0000000000000000                1
  -17.999994545345299        9.9999925408993029        0.0000000000000000                1
  -15.999967675158164        9.9999576611671692        0.0000000000000000                1
  -13.999848176135345        9.9998134455674670        0.0000000000000000                1
  -11.999426304292294        9.9993546094547554        0.0000000000000000                1
  -9.9982728483057954        9.9982730976822296        0.0000000000000000                1
  -7.9960405267599022        9.9965855999514730        0.0000000000000000                1
  -5.9934245084631490        9.9951348130270699        0.0000000000000000                1
  -3.9925163010429268        9.9948579383224256        0.0000000000000000                1
  -1.9951027036114239        9.9955199830174095        0.0000000000000000                1
  -6.4090239310737190E-004   9.9960782362577945        0.0000000000000000                1
   1.9935859375444969        9.9958450365530869        0.0000000000000000                1
   3.9905368527334648        9.9950541584664023        0.0000000000000000                1
   5.9912505465257437        9.9948073835745372        0.0000000000000000                1