 VARIABLES = "X", "Y", "Z", "Material ID"
 ZONE F=FEPOINT, ET=QUADRILATERAL, N=         773 E=         657
 -0.94272401859941624       0.30916666429573980        0.0000000000000000                1
 -0.62981163376803528       0.30652773226106311        0.0000000000000000                1
  -1.0909295748462620       0.15324975451689576        0.0000000000000000                1
 -0.93965549501244860       0.15871588368469669        0.0000000000000000                1
  -1.0922656959262362       0.30990238103866441        0.0000000000000000                1
  -1.1645507812500000        8.5449218750000000E-002   0.0000000000000000                1
  -1.0863262459864054        8.4157995300814664E-002   0.0000000000000000                1
  -1.1578638615574679       0.15026052055982497        0.0000000000000000                1
  -1.1055243147426619        4.8074650639113384E-002   0.0000000000000000                1
  -1.0815970868955438        4.6989266353536896E-002   0.0000000000000000                1
  -1.1173712456422549        6.9957627775426787E-002   0.0000000000000000                1
  -1.1882989805579400       0.12156698929775718        0.0000000000000000                1
  -1.1668204734926786       0.11437808267293213        0.0000000000000000                1
  -1.1923298151434858       0.14573782087077508        0.0000000000000000                1
  -1.1328125000000000       0.11718750000000000        0.0000000000000000                1
  -1.0165456921895737        7.9797366710298051E-002   0.0000000000000000                1
 -0.93955143620866688        7.8379130851241624E-002   0.0000000000000000                1
  -1.0235046152747973       0.15844883142068034        0.0000000000000000                1
  -1.0491352339303874        4.3863454508432723E-002   0.0000000000000000                1
  -1.0170750982035512        4.1013288156553418E-002   0.0000000000000000                1
  -1.0517059210606587        8.3501303697706156E-002   0.0000000000000000                1
 -0.98213820407389119        3.9659174389453294E-002   0.0000000000000000                1
 -0.94116755205191116        3.8971032335533652E-002   0.0000000000000000                1
 -0.97919716207452978        7.9007762654983438E-002   0.0000000000000000                1
  -1.0507237444589528       0.11454177421969462        0.0000000000000000                1
  -1.0202172527863733       0.11805648304053980        0.0000000000000000                1
 -0.97941164485819932       0.11867109713725614        0.0000000000000000                1
 -0.93905250050247724       0.11857450188852449        0.0000000000000000                1
 -0.97992335135402631       0.15948132361536616        0.0000000000000000                1
  -1.1680437997715112       0.22629276280058400        0.0000000000000000                1
  -1.0902733654041064       0.22457840746644089        0.0000000000000000                1
  -1.1727584665917061       0.30481184826015151        0.0000000000000000                1
  -1.1994626401098178       0.18078291803733057        0.0000000000000000                1
  -1.1621143827296012       0.18815339260307071        0.0000000000000000                1
  -1.2057678436808832       0.21986792180399897        0.0000000000000000                1
  -1.1325311299779459       0.19404647270922634        0.0000000000000000                1
  -1.1304178352748004       0.22614333879226609        0.0000000000000000                1
  -1.2087800300648006       0.26067692154547339        0.0000000000000000                1
  -1.1703073690757066       0.26560325643422911        0.0000000000000000                1
  -1.2091421127322746       0.29980207339747728        0.0000000000000000                1
  -1.1312751907299399       0.26810374975743700        0.0000000000000000                1
  -1.0906390453050419       0.26934037303585168        0.0000000000000000                1
  -1.1328684222792391       0.30860375984270377        0.0000000000000000                1
  -1.0260854554026244       0.22363482183826874        0.0000000000000000                1
 -0.94565512899572857       0.23506807575637687        0.0000000000000000                1
  -1.0166634817321627       0.30665628610471946        0.0000000000000000                1
  -1.0507015850794881       0.19788171452397546        0.0000000000000000                1
  -1.0195080281825337       0.20253738050400064        0.0000000000000000                1
  -1.0468360358976267       0.22977560916469750        0.0000000000000000                1
 -0.97979601464858102       0.20348407148056169        0.0000000000000000                1
 -0.93881421442167634       0.19683359530760225        0.0000000000000000                1
 -0.96982343875782095       0.22577368533928435        0.0000000000000000                1
  -1.0468188104225269       0.27043115082902103        0.0000000000000000                1
  -1.0251014145725272       0.28086313938111346        0.0000000000000000                1
  -1.0544136752420148       0.31279618937110276        0.0000000000000000                1
 -0.97134053996884262       0.27943628414977806        0.0000000000000000                1
 -0.94833863569920063       0.27179085662276908        0.0000000000000000                1
 -0.97980229705009425       0.30353592958928344        0.0000000000000000                1
 -0.78801477337170311       0.14338303718363185        0.0000000000000000                1
 -0.62486488795854656       0.15432535295813796        0.0000000000000000                1
 -0.78708883834523213       0.30729312660319785        0.0000000000000000                1
 -0.86162010271381873        7.1281796534345368E-002   0.0000000000000000                1
 -0.76670690924392504        6.7462690400751313E-002   0.0000000000000000                1
 -0.85426659696241103       0.16290993641810028        0.0000000000000000                1
 -0.90021160477528284        3.7700645338769566E-002   0.0000000000000000                1
 -0.86393324700493024        3.4402509696060665E-002   0.0000000000000000                1
 -0.89968828219610553        7.6587500721838148E-002   0.0000000000000000                1
 -0.83960676689958458        2.8669711021287212E-002   0.0000000000000000                1
 -0.82079057714981141        5.6010886583285617E-002   0.0000000000000000                1
 -0.89845106353856874       0.11772161460867699        0.0000000000000000                1
 -0.85659685557969767       0.11299881926921422        0.0000000000000000                1
 -0.90033360062714063       0.16086319800264856        0.0000000000000000                1
 -0.82324058309658055       0.10402429254697641        0.0000000000000000                1
 -0.70015372654125008        7.4547617224896334E-002   0.0000000000000000                1
 -0.62431299175042321        7.6866973573337369E-002   0.0000000000000000                1
 -0.70302404312003386       0.15172785978726860        0.0000000000000000                1
 -0.87665838159152398       0.23399211634470776        0.0000000000000000                1
 -0.78558646624357042       0.23093036110011592        0.0000000000000000                1
 -0.85683122172055470       0.30895549429762614        0.0000000000000000                1
 -0.90712925946880529       0.19350327713100784        0.0000000000000000                1
 -0.91071601070986608       0.27659528433401820        0.0000000000000000                1
 -0.90621232471147017       0.30988053862537651        0.0000000000000000                1
 -0.70561086947981977       0.23044647190837000        0.0000000000000000                1
 -0.62647756468696914       0.23161958029815519        0.0000000000000000                1
 -0.70821728771476478       0.30639415073753296        0.0000000000000000                1
  -1.0910979645315122       0.45526053660876065        0.0000000000000000                1
 -0.95154310570059542       0.46180783773358575        0.0000000000000000                1
  -1.1708082582465851       0.38531320125028007        0.0000000000000000                1
  -1.0906494477705861       0.38644779986606026        0.0000000000000000                1
  -1.2098085082338979       0.32753346267342315        0.0000000000000000                1
  -1.1819478939174410       0.34663828608287095        0.0000000000000000                1
  -1.1337279263319575       0.34780443467348593        0.0000000000000000                1
  -1.0907678742415525       0.34823839040569482        0.0000000000000000                1
  -1.1342753004916948       0.38430923426193769        0.0000000000000000                1
  -1.1655223977574842       0.40751709553688842        0.0000000000000000                1
  -1.1418176049932751       0.41532509132796075        0.0000000000000000                1
  -1.1018409912043943       0.42902947224737081        0.0000000000000000                1
  -1.0203554125522303       0.38452866617973863        0.0000000000000000                1
 -0.94550476396355998       0.38554404113156276        0.0000000000000000                1
  -1.0292876100148662       0.45278133163568784        0.0000000000000000                1
  -1.0584927532357871       0.34479417611302854        0.0000000000000000                1
 -0.97579486690752293       0.34200020914657975        0.0000000000000000                1
 -0.94337391533123505       0.34588838589889548        0.0000000000000000                1
  -1.0642755721681949       0.42644949094007922        0.0000000000000000                1
  -1.0655727701384403       0.45311268337198346        0.0000000000000000                1
 -0.98099899901887633       0.42731867615933838        0.0000000000000000                1
 -0.94740452455131763       0.42471096589674745        0.0000000000000000                1
 -0.99061068682726638       0.45807475677637027        0.0000000000000000                1
 -0.79908246185634102       0.44210974147484816        0.0000000000000000                1
 -0.64852895546118772       0.44042340941858171        0.0000000000000000                1
 -0.87986861941381345       0.38232956903320892        0.0000000000000000                1
 -0.79137675616505665       0.37819313614422978        0.0000000000000000                1
 -0.86298025456828420       0.44819619633488800        0.0000000000000000                1
 -0.90975518980398640       0.34345515267840232        0.0000000000000000                1
 -0.91327093390849112       0.42640524679532060        0.0000000000000000                1
 -0.91148543341051280       0.45737256588646180        0.0000000000000000                1
 -0.71417875515264084       0.37665294331529769        0.0000000000000000                1
 -0.63674303064346083       0.37651001770748538        0.0000000000000000                1
 -0.72524844149410606       0.44060137603903526        0.0000000000000000                1
 -0.30451439795503815       0.31746666751215535        0.0000000000000000                1
 -0.46729108513902623       0.15427650369615067        0.0000000000000000                1
 -0.30306198759162861       0.14972410308483869        0.0000000000000000                1
 -0.47161927788610242       0.30931242480397086        0.0000000000000000                1
 -0.54653968996878866        7.7231503177170799E-002   0.0000000000000000                1
 -0.46794579575096995        7.6034826780240761E-002   0.0000000000000000                1
 -0.54661166522455451       0.15492393901459764        0.0000000000000000                1
 -0.38372046786441771        6.9474716160190186E-002   0.0000000000000000                1
 -0.31973715218539273        8.5313528313376796E-002   0.0000000000000000                1
 -0.38738848365649325       0.15370218387256823        0.0000000000000000                1
 -0.34859683646068534        3.3766263926851434E-002   0.0000000000000000                1
 -0.31635474222063892        3.9240932956981604E-002   0.0000000000000000                1
 -0.54780327326469880       0.23231591289674433        0.0000000000000000                1
 -0.46846708256437153       0.23280773798550650        0.0000000000000000                1
 -0.55127701355125214       0.30737892813491258        0.0000000000000000                1
 -0.38769420402346172       0.23334960440566477        0.0000000000000000                1
 -0.30676360870944175       0.23396879551277303        0.0000000000000000                1
 -0.39071147733266220       0.31161537916590948        0.0000000000000000                1
 -0.15812924919250948       0.15366735639388007        0.0000000000000000                1
 -0.16300500061598985       0.32324043428576305        0.0000000000000000                1
 -0.23460479860456371        7.8779065345748842E-002   0.0000000000000000                1
 -0.15042912014330750        7.9375897725766253E-002   0.0000000000000000                1
 -0.23831385104092509       0.16569837546843111        0.0000000000000000                1
 -0.27492420555161656        4.0377966602346986E-002   0.0000000000000000                1
 -0.23456234220730576        3.9132604329807932E-002   0.0000000000000000                1
 -0.27413500095299725        8.2005717439327011E-002   0.0000000000000000                1
 -0.19200152827471628        3.5689717449776510E-002   0.0000000000000000                1
 -0.15963192822164096        4.3923104815381871E-002   0.0000000000000000                1
 -0.19505460120044554        7.8678598429032506E-002   0.0000000000000000                1
 -0.17420856776258792        1.7234235604546514E-002   0.0000000000000000                1
 -0.15805334923454331        2.0028900904145948E-002   0.0000000000000000                1
 -0.26927001152254781       0.11444304459120790        0.0000000000000000                1
 -0.23711456425573171       0.11875394526259817        0.0000000000000000                1
 -0.19653798436765393       0.11894270173548895        0.0000000000000000                1
 -0.16184868751492101       0.11804492461701603        0.0000000000000000                1
 -0.19404003566485864       0.15979155390506558        0.0000000000000000                1
  -7.8228782026038293E-002   7.8307687985981658E-002   0.0000000000000000                1
   8.7944759410477181E-014   7.4328283029714851E-002   0.0000000000000000                1
 -0.11733235767277046        3.9743318840049280E-002   0.0000000000000000                1
  -7.8076431941597094E-002   3.9354060499436620E-002   0.0000000000000000                1
 -0.11938931811764329        7.9168924973823482E-002   0.0000000000000000                1
 -0.13736920702568445        2.0553021040674177E-002   0.0000000000000000                1
 -0.11735048142997624        2.0043677612729557E-002   0.0000000000000000                1
 -0.13678132299077606        4.1802155503195895E-002   0.0000000000000000                1
  -9.7711116511186261E-002   1.9731564142118036E-002   0.0000000000000000                1
  -7.8116247828627902E-002   1.9648026182387261E-002   0.0000000000000000                1
  -9.7839042869016665E-002   3.9416674020359352E-002   0.0000000000000000                1
 -0.13418167561051125        5.7980212653369313E-002   0.0000000000000000                1
 -0.11839471275975118        5.9160504552394126E-002   0.0000000000000000                1
  -9.8081504183653245E-002   5.9071645191998735E-002   0.0000000000000000                1
  -7.8023405475860313E-002   5.9192604828703317E-002   0.0000000000000000                1
  -9.7943754956613838E-002   7.8794243284662016E-002   0.0000000000000000                1
  -3.8776339058763910E-002   3.8983175372384347E-002   0.0000000000000000                1
   7.5182927582439115E-014   3.8531406730297008E-002   0.0000000000000000                1
  -3.7021745987101985E-002   7.6931858671979353E-002   0.0000000000000000                1
  -5.8520145590691811E-002   1.9599528090220971E-002   0.0000000000000000                1
  -3.8967842351340411E-002   1.9520593982032281E-002   0.0000000000000000                1
  -5.8364253279504862E-002   3.9255605624222367E-002   0.0000000000000000                1
  -1.9476517684612633E-002   1.9434242275398236E-002   0.0000000000000000                1
   3.1672015280257619E-014   1.9396484791109447E-002   0.0000000000000000                1
  -1.9338981430127085E-002   3.8666929682244756E-002   0.0000000000000000                1
  -5.8058541913772591E-002   5.9169250464869309E-002   0.0000000000000000                1
  -3.8317925114630384E-002   5.8333993049865064E-002   0.0000000000000000                1
  -5.7633380024430331E-002   8.1256716804272808E-002   0.0000000000000000                1
  -1.9028143482167342E-002   5.7353991056403153E-002   0.0000000000000000                1
   1.0992752183954751E-013   5.7011111211668755E-002   0.0000000000000000                1
  -1.8497668801404580E-002   7.4973442295981144E-002   0.0000000000000000                1
 -0.11647056551020231       0.11902480392788478        0.0000000000000000                1
 -0.13428908402800643       0.10089041891352356        0.0000000000000000                1
 -0.11836462444789754        9.9044088902264057E-002   0.0000000000000000                1
 -0.13693063608416950       0.11795463645675348        0.0000000000000000                1
  -9.6340687194944652E-002  0.10050582915347951        0.0000000000000000                1
  -7.7151079398870712E-002   9.4630815808369032E-002   0.0000000000000000                1
 -0.10278890726929781       0.11394781262047696        0.0000000000000000                1
 -0.13465256806824921       0.13776936478222446        0.0000000000000000                1
 -0.12218877167826249       0.13218791956681369        0.0000000000000000                1
  -6.5412668340044069E-002   9.3200193365813325E-002   0.0000000000000000                1
 -0.21789754398121539       0.23505903228998642        0.0000000000000000                1
 -0.23739752873805187       0.30221557821543366        0.0000000000000000                1
 -0.18064746178250127       0.19405704894413256        0.0000000000000000                1
 -0.16282298475299600       0.18051929551644419        0.0000000000000000                1
 -0.18650755153922732       0.27285401746967530        0.0000000000000000                1
 -0.18602644233135038       0.30633024458467450        0.0000000000000000                1
 -0.49415963533151058       0.44366946678507568        0.0000000000000000                1
 -0.32759777972354076       0.46281606713272150        0.0000000000000000                1
 -0.55880221766870475       0.37749355859639017        0.0000000000000000                1
 -0.48005325944647076       0.38073293992673773        0.0000000000000000                1
 -0.57095989351375953       0.44113454806859598        0.0000000000000000                1
 -0.39423268669424338       0.39118280963436564        0.0000000000000000                1
 -0.32441076067641239       0.38036591770885209        0.0000000000000000                1
 -0.42500553938916469       0.45038778080892594        0.0000000000000000                1
 -0.36009657939572615       0.42819538279375230        0.0000000000000000                1
 -0.32521341168052464       0.42504656604095126        0.0000000000000000                1
 -0.37096958803652141       0.45880808893533664        0.0000000000000000                1
 -0.15732532554575515       0.46675572184374980        0.0000000000000000                1
  -3.0200529688152351E-003  0.46585723098035164        0.0000000000000000                1
 -0.23642688187393165       0.38825615584585904        0.0000000000000000                1
 -0.15389682410412572       0.38226979649875620        0.0000000000000000                1
 -0.24736273696954431       0.46481515755403469        0.0000000000000000                1
 -0.26997022578664998       0.35322223051312046        0.0000000000000000                1
 -0.23657510896004266       0.34867622032083384        0.0000000000000000                1
 -0.27695643020793614       0.38498813630537326        0.0000000000000000                1
 -0.19516900419072766       0.34807588061229161        0.0000000000000000                1
 -0.15752762398223322       0.34675690130318576        0.0000000000000000                1
 -0.19601118029219838       0.38701128261616824        0.0000000000000000                1
 -0.28195880383402216       0.42539581994350872        0.0000000000000000                1
 -0.24056310213505006       0.42730568972718297        0.0000000000000000                1
 -0.28694039437567631       0.46355354716068109        0.0000000000000000                1
 -0.19591788578538935       0.43079389946421770        0.0000000000000000                1
 -0.15802024284689403       0.41834058634841376        0.0000000000000000                1
 -0.21175030471301234       0.46830418705547722        0.0000000000000000                1
 -0.17703144011469299       0.45076129512340901        0.0000000000000000                1
 -0.15750325368879031       0.44528563184569597        0.0000000000000000                1
 -0.18120465494384502       0.47391539208532374        0.0000000000000000                1
  -8.6504046160137502E-002  0.39809559359721119        0.0000000000000000                1
  -8.0116220909458552E-002  0.46705371424602488        0.0000000000000000                1
 -0.12062568874092444       0.38839648165461488        0.0000000000000000                1
 -0.13842076649828078       0.35418802948565048        0.0000000000000000                1
 -0.13225539264445932       0.36465585196151895        0.0000000000000000                1
 -0.12265281270069241       0.37203168717627727        0.0000000000000000                1
  -9.9398398400746629E-002  0.39633731902967095        0.0000000000000000                1
 -0.10474299260829503       0.44175575602985795        0.0000000000000000                1
  -8.0131890593899802E-002  0.43317956770335708        0.0000000000000000                1
 -0.11576642093546229       0.46445026936353589        0.0000000000000000                1
 -0.10365653537356818       0.41591540933481824        0.0000000000000000                1
  -7.9552484497573753E-002  0.41115764113209718        0.0000000000000000                1
 -0.13240099468204294       0.44182214835764488        0.0000000000000000                1
 -0.13624464195832706       0.46407277896838239        0.0000000000000000                1
  -9.3179126674480139E-002  0.45357843548532589        0.0000000000000000                1
  -7.9088086478322564E-002  0.45077477663822785        0.0000000000000000                1
  -9.7614762226750529E-002  0.46639526161157163        0.0000000000000000                1
  -3.9418533402809097E-002  0.42502643299753817        0.0000000000000000                1
  -3.7945911982178906E-004  0.42831968795044173        0.0000000000000000                1
  -4.2030522803335697E-002  0.46598022627971986        0.0000000000000000                1
  -5.9093560072885798E-002  0.41396812023595725        0.0000000000000000                1
  -4.6875108896105605E-002  0.41384320445299488        0.0000000000000000                1
  -6.0063341145955740E-002  0.43027522273624830        0.0000000000000000                1
  -1.8912685632484827E-002  0.42766858085000059        0.0000000000000000                1
  -6.0017506801363689E-002  0.44845944952329420        0.0000000000000000                1
  -4.0253631825906890E-002  0.44715447345474357        0.0000000000000000                1
  -6.1451754282440957E-002  0.46644995602262124        0.0000000000000000                1
  -2.0555681011575969E-002  0.44707326266204744        0.0000000000000000                1
  -1.2305023593316142E-003  0.44731759721355613        0.0000000000000000                1
  -2.2493404102041273E-002  0.46584928011252430        0.0000000000000000                1
 -0.17132656076696196       0.48720389601090713        0.0000000000000000                1
 -0.15881119645409775       0.48447241623400816        0.0000000000000000                1
 -0.14081425958747282       0.48299229538064059        0.0000000000000000                1
 -0.12162527145780423       0.48280235795715337        0.0000000000000000                1
 -0.10252824408899953       0.48321511174938081        0.0000000000000000                1
  -8.3585024472733041E-002  0.48351455624889816        0.0000000000000000                1
  -6.4422952530611838E-002  0.48350030717628695        0.0000000000000000                1
  -4.4997401977964341E-002  0.48339367447697290        0.0000000000000000                1
  -2.5487391579657299E-002  0.48334394514840118        0.0000000000000000                1
  -5.9765998376622147E-003  0.48333646496045574        0.0000000000000000                1
  0.30127724446195658       0.31779380289256715        0.0000000000000000                1
  0.62052161974122844       0.30652745125188580        0.0000000000000000                1
  0.15813385864127211       0.15390765225480449        0.0000000000000000                1
  0.30283484374325831       0.15004982149113913        0.0000000000000000                1
  0.16289224669438132       0.32335339132934710        0.0000000000000000                1
   7.8228786986085166E-002   7.8307864678305958E-002   0.0000000000000000                1
  0.15042947495127545        7.9407767626739609E-002   0.0000000000000000                1
   3.8776339075158907E-002   3.8983175992841443E-002   0.0000000000000000                1
   7.8076432920862748E-002   3.9354104447294917E-002   0.0000000000000000                1
   3.7021746021278945E-002   7.6931859850361162E-002   0.0000000000000000                1
   1.9476517685099476E-002   1.9434242293810269E-002   0.0000000000000000                1
   3.8967842356757987E-002   1.9520594203335115E-002   0.0000000000000000                1
   1.9338981431439750E-002   3.8666929729453292E-002   0.0000000000000000                1
   5.8520145634154537E-002   1.9599530063011135E-002   0.0000000000000000                1
   7.8116248060463231E-002   1.9648038973776243E-002   0.0000000000000000                1
   5.8364253428108109E-002   3.9255611646627435E-002   0.0000000000000000                1
   1.9028143484360951E-002   5.7353991132467808E-002   0.0000000000000000                1
   3.8317925147923933E-002   5.8333994233813274E-002   0.0000000000000000                1
   1.8497668803327448E-002   7.4973442361419507E-002   0.0000000000000000                1
   5.8058542266139608E-002   5.9169263471128553E-002   0.0000000000000000                1
   7.8023408106547440E-002   5.9192708501500609E-002   0.0000000000000000                1
   5.7633380550176104E-002   8.1256735035234715E-002   0.0000000000000000                1
  0.11733236807263968        3.9744134591319952E-002   0.0000000000000000                1
  0.15963178071877399        4.3931822219033030E-002   0.0000000000000000                1
  0.11938944433320223        7.9174720344938845E-002   0.0000000000000000                1
   9.7711117140831777E-002   1.9731623579026560E-002   0.0000000000000000                1
  0.11735048115343058        2.0043931290345655E-002   0.0000000000000000                1
   9.7839047297617540E-002   3.9416909902176209E-002   0.0000000000000000                1
  0.13736918762106698        2.0553834542461975E-002   0.0000000000000000                1
  0.15805323211302758        2.0030595156281319E-002   0.0000000000000000                1
  0.13678134011629392        4.1805399195647519E-002   0.0000000000000000                1
   9.8081518491912684E-002   5.9072274822015665E-002   0.0000000000000000                1
  0.11839476742442068        5.9163458079656270E-002   0.0000000000000000                1
   9.7943785015022031E-002   7.8795394765221030E-002   0.0000000000000000                1
  0.13418175436423144        5.7985510354677243E-002   0.0000000000000000                1
   6.5412668856166173E-002   9.3200210614947460E-002   0.0000000000000000                1
   7.7151084338149087E-002   9.4630982097246671E-002   0.0000000000000000                1
  0.11647086272496100       0.11903438094873170        0.0000000000000000                1
  0.16185073689331089       0.11816386793497231        0.0000000000000000                1
   9.6340731188114134E-002  0.10050731614995587        0.0000000000000000                1
  0.11836484264709794        9.9051999743663022E-002   0.0000000000000000                1
  0.10278895849738880       0.11394942257968588        0.0000000000000000                1
  0.13428962642357176       0.10091077320459962        0.0000000000000000                1
  0.13693183660513675       0.11799818303798328        0.0000000000000000                1
  0.12218912484657626       0.13219900206394533        0.0000000000000000                1
  0.13465392173250099       0.13781765238281699        0.0000000000000000                1
  0.23459706872313799        7.8850501778170351E-002   0.0000000000000000                1
  0.31967661094278088        8.5396380595592555E-002   0.0000000000000000                1
  0.23823016001104136       0.16632800663745320        0.0000000000000000                1
  0.19200031713781712        3.5702923941670205E-002   0.0000000000000000                1
  0.23455537110070757        3.9151560804339902E-002   0.0000000000000000                1
  0.19505331779400883        7.8740332286001691E-002   0.0000000000000000                1
  0.17420835906625026        1.7236149462315373E-002   0.0000000000000000                1
  0.27489292959661438        4.0399749223586440E-002   0.0000000000000000                1
  0.31630079993837523        3.9261781233151175E-002   0.0000000000000000                1