 VARIABLES = "X", "Y", "Z", "Material ID"
 ZONE F=FEPOINT, ET=QUADRILATERAL, N=         771 E=         657
 -0.94272437125992392       0.30916689428168270        0.0000000000000000                1
 -0.62981183640914118       0.30652772493251645        0.0000000000000000                1
  -1.0909302502381626       0.15324901264623680        0.0000000000000000                1
 -0.93965523072859813       0.15871596565863511        0.0000000000000000                1
  -1.0922656120518315       0.30990184862617121        0.0000000000000000                1
  -1.0863310793994680        8.4158945605635624E-002   0.0000000000000000                1
  -1.1578627607337453       0.15025708108617400        0.0000000000000000                1
  -1.1055323791089748        4.8077640453346254E-002   0.0000000000000000                1
  -1.0816083062952326        4.6992362582255344E-002   0.0000000000000000                1
  -1.1173740663197744        6.9957877315408423E-002   0.0000000000000000                1
  -1.1882975272806193       0.12156340661505492        0.0000000000000000                1
  -1.1668201768734443       0.11437687332180901        0.0000000000000000                1
  -1.1923266887409041       0.14573045105786131        0.0000000000000000                1
  -1.0165481197279385        7.9798099361888017E-002   0.0000000000000000                1
 -0.93954660612966923        7.8379267205192615E-002   0.0000000000000000                1
  -1.0235049069633335       0.15844881987631099        0.0000000000000000                1
  -1.0491487257475494        4.3865975123612323E-002   0.0000000000000000                1
  -1.0170838309203813        4.1014758922881249E-002   0.0000000000000000                1
  -1.0517111096617129        8.3502323598693598E-002   0.0000000000000000                1
 -0.98213027868964242        3.9659705050636374E-002   0.0000000000000000                1
 -0.94115070097077325        3.8971159884406317E-002   0.0000000000000000                1
 -0.97919468309633373        7.9008129766780538E-002   0.0000000000000000                1
  -1.0507256293256499       0.11454204150552873        0.0000000000000000                1
  -1.0202180312231257       0.11805670694394668        0.0000000000000000                1
 -0.97941097220856532       0.11867126719480579        0.0000000000000000                1
 -0.93905120986993373       0.11857459211766994        0.0000000000000000                1
 -0.97992321259464732       0.15948141892505860        0.0000000000000000                1
  -1.1680428301963217       0.22628796953549965        0.0000000000000000                1
  -1.0902733798946216       0.22457770645132311        0.0000000000000000                1
  -1.1727592060219520       0.30480827048770814        0.0000000000000000                1
  -1.1994594550560067       0.18077224382834581        0.0000000000000000                1
  -1.1621131013628476       0.18814864348166307        0.0000000000000000                1
  -1.2057656138150903       0.21985687544386220        0.0000000000000000                1
  -1.1325307491182672       0.19404444517407721        0.0000000000000000                1
  -1.1304175605968170       0.22614141593423212        0.0000000000000000                1
  -1.2087792586873680       0.26067044872233630        0.0000000000000000                1
  -1.1703071222459609       0.26559941133215154        0.0000000000000000                1
  -1.2091431476319261       0.29979777264069968        0.0000000000000000                1
  -1.1312751444313469       0.26810200733159162        0.0000000000000000                1
  -1.0906390157962893       0.26933976573576379        0.0000000000000000                1
  -1.1328686974635831       0.30860199048048026        0.0000000000000000                1
  -1.0260858292986323       0.22363443350825032        0.0000000000000000                1
 -0.94565538062399712       0.23506842620106216        0.0000000000000000                1
  -1.0166636063655776       0.30665616899823617        0.0000000000000000                1
  -1.0507017916752184       0.19788146060442852        0.0000000000000000                1
  -1.0195083524537776       0.20253743349321954        0.0000000000000000                1
  -1.0468359906515494       0.22977518672932717        0.0000000000000000                1
 -0.97979584704379463       0.20348424323853553        0.0000000000000000                1
 -0.93881422947141469       0.19683371989034532        0.0000000000000000                1
 -0.96982325982012008       0.22577364518229573        0.0000000000000000                1
  -1.0468187620170883       0.27043116764811204        0.0000000000000000                1
  -1.0251020860399398       0.28086321590550045        0.0000000000000000                1
  -1.0544134660208542       0.31279617069540894        0.0000000000000000                1
 -0.97134020608363236       0.27943676239798093        0.0000000000000000                1
 -0.94833894551223907       0.27179160145350889        0.0000000000000000                1
 -0.97980195738094367       0.30353590275546993        0.0000000000000000                1
 -0.78801665997399351       0.14338305857517275        0.0000000000000000                1
 -0.62486534457446108       0.15432534550379379        0.0000000000000000                1
 -0.78709059998358710       0.30729316307063187        0.0000000000000000                1
 -0.86162281714226618        7.1281808513079761E-002   0.0000000000000000                1
 -0.76671391644067033        6.7462694415746149E-002   0.0000000000000000                1
 -0.85426748646246331       0.16290998226030218        0.0000000000000000                1
 -0.90020601760192165        3.7700676536868261E-002   0.0000000000000000                1
 -0.86393924799859056        3.4402516932900862E-002   0.0000000000000000                1
 -0.89968613250279539        7.6587541745602311E-002   0.0000000000000000                1
 -0.83961529638169352        2.8669712890222254E-002   0.0000000000000000                1
 -0.82079910065863415        5.6010891187162189E-002   0.0000000000000000                1
 -0.89845068004673823       0.11772165558667103        0.0000000000000000                1
 -0.85659850883430777       0.11299883859717381        0.0000000000000000                1
 -0.90033371648161586       0.16086325821570144        0.0000000000000000                1
 -0.82324406601720812       0.10402430250749088        0.0000000000000000                1
 -0.70014865873372900        7.4547619044027291E-002   0.0000000000000000                1
 -0.62431283255999703        7.6866969332262405E-002   0.0000000000000000                1
 -0.70302417787576443       0.15172786528168133        0.0000000000000000                1
 -0.87665906314038355       0.23399226943556450        0.0000000000000000                1
 -0.78558731393666759       0.23093040007891791        0.0000000000000000                1
 -0.85683324111934067       0.30895558568802761        0.0000000000000000                1
 -0.90712944123255856       0.19350338087334473        0.0000000000000000                1
 -0.91071652180216034       0.27659555976676925        0.0000000000000000                1
 -0.90621354908526919       0.30988072078762668        0.0000000000000000                1
 -0.70561136412256409       0.23044648059227149        0.0000000000000000                1
 -0.62647782801698548       0.23161957170893063        0.0000000000000000                1
 -0.70821806645389740       0.30639415907709427        0.0000000000000000                1
  -1.0910841937451619       0.45526594052434144        0.0000000000000000                1
 -0.95155887613954815       0.46180810601787486        0.0000000000000000                1
  -1.1708089793974741       0.38531073935432608        0.0000000000000000                1
  -1.0906470859243980       0.38644855210364842        0.0000000000000000                1
  -1.2098114583536841       0.32752628868514871        0.0000000000000000                1
  -1.1819501205360157       0.34663279450799256        0.0000000000000000                1
  -1.1337280774406471       0.34780281876473274        0.0000000000000000                1
  -1.0907672709355960       0.34823815861006541        0.0000000000000000                1
  -1.1342741862175973       0.38430883107127606        0.0000000000000000                1
  -1.1655208938478072       0.40751763641558159        0.0000000000000000                1
  -1.1418144924203781       0.41532682813735344        0.0000000000000000                1
  -1.1018344174803281       0.42903237761483520        0.0000000000000000                1
  -1.0203535237849519       0.38452964469236145        0.0000000000000000                1
 -0.94550770178515275       0.38554433673786936        0.0000000000000000                1
  -1.0292775129348815       0.45278420371213202        0.0000000000000000                1
  -1.0584920592885363       0.34479434172686363        0.0000000000000000                1
 -0.97579479961695159       0.34200041950302756        0.0000000000000000                1
 -0.94337495358190915       0.34588857311763033        0.0000000000000000                1
  -1.0642681100955607       0.42645220273614115        0.0000000000000000                1
  -1.0655577500656075       0.45311773284604018        0.0000000000000000                1
 -0.98100080385503807       0.42731942553315594        0.0000000000000000                1
 -0.94741166409952426       0.42471130874257190        0.0000000000000000                1
 -0.99061168606324079       0.45807573008789615        0.0000000000000000                1
 -0.79909342413579965       0.44210975236591177        0.0000000000000000                1
 -0.64852481222098524       0.44042340741474179        0.0000000000000000                1
 -0.87987564517526817       0.38232966687315273        0.0000000000000000                1
 -0.79138151969953874       0.37819316006725734        0.0000000000000000                1
 -0.86300101729793122       0.44819622462777658        0.0000000000000000                1
 -0.90975718926417892       0.34345526772473062        0.0000000000000000                1
 -0.91328246820890469       0.42640536709823390        0.0000000000000000                1
 -0.91150953860934136       0.45737264457717769        0.0000000000000000                1
 -0.71417977339408512       0.37665294871074656        0.0000000000000000                1
 -0.63674280164358987       0.37651001306702714        0.0000000000000000                1
 -0.72524673393797856       0.44060137841274905        0.0000000000000000                1
 -0.30451512609394832       0.31746421598629343        0.0000000000000000                1
 -0.46728910326569179       0.15427628404904564        0.0000000000000000                1
 -0.30305876612629357       0.14972175998766202        0.0000000000000000                1
 -0.47161915963038686       0.30931219903554696        0.0000000000000000                1
 -0.54654819053275605        7.7231476803255594E-002   0.0000000000000000                1
 -0.46794122763085239        7.6034720224504707E-002   0.0000000000000000                1
 -0.54661249738992790       0.15492388910027519        0.0000000000000000                1
 -0.38370416634292887        6.9474416440356318E-002   0.0000000000000000                1
 -0.31972810414719771        8.5312949081082085E-002   0.0000000000000000                1
 -0.38738382703811802       0.15370139780920172        0.0000000000000000                1
 -0.34856752621814308        3.3766171733478428E-002   0.0000000000000000                1
 -0.31633229088028614        3.9240786302561115E-002   0.0000000000000000                1
 -0.54780327890445069       0.23231585245495490        0.0000000000000000                1
 -0.46846637047690270       0.23280746233677768        0.0000000000000000                1
 -0.55127708114547658       0.30737887684119658        0.0000000000000000                1
 -0.38769292514020803       0.23334856073232188        0.0000000000000000                1
 -0.30676247167054355       0.23396531076746882        0.0000000000000000                1
 -0.39071138931183996       0.31161456693487899        0.0000000000000000                1
 -0.15812120802986462       0.15365083009773245        0.0000000000000000                1
 -0.16300920401764607       0.32323074876685282        0.0000000000000000                1
 -0.23461110337769481        7.8778009705346000E-002   0.0000000000000000                1
 -0.15043207477013773        7.9374719813694858E-002   0.0000000000000000                1
 -0.23831240125068601       0.16569258445862367        0.0000000000000000                1
 -0.27492834294091573        4.0377757931004295E-002   0.0000000000000000                1
 -0.23458282754386464        3.9132304186352565E-002   0.0000000000000000                1
 -0.27413489960359766        8.2005000788591687E-002   0.0000000000000000                1
 -0.19202067344713802        3.5689385165725403E-002   0.0000000000000000                1
 -0.15964005989137864        4.3922812739983906E-002   0.0000000000000000                1
 -0.19506128493014829        7.8677057615122725E-002   0.0000000000000000                1
 -0.17423930925787998        1.7234172861949771E-002   0.0000000000000000                1
 -0.15806829691716434        2.0028842102581927E-002   0.0000000000000000                1
 -0.26926923650666740       0.11444156551677873        0.0000000000000000                1
 -0.23711531391991644       0.11875122032824101        0.0000000000000000                1
 -0.19653833754936351       0.11893807711469731        0.0000000000000000                1
 -0.16184737255243725       0.11803913766359127        0.0000000000000000                1
 -0.19403702867978365       0.15978184431676329        0.0000000000000000                1
  -7.8227439299009827E-002   7.8308383391953479E-002   0.0000000000000000                1
  -9.8131321321884819E-009   7.4327766465355646E-002   0.0000000000000000                1
 -0.11733014798327122        3.9743381159484205E-002   0.0000000000000000                1
  -7.8072743745848300E-002   3.9353920186480873E-002   0.0000000000000000                1
 -0.11939147462764244        7.9169754957201549E-002   0.0000000000000000                1
 -0.13736054973224648        2.0552997568711769E-002   0.0000000000000000                1
 -0.11734411498873890        2.0043681432986057E-002   0.0000000000000000                1
 -0.13678171246755211        4.1802072282029569E-002   0.0000000000000000                1
  -9.7709723442630986E-002   1.9731556841428931E-002   0.0000000000000000                1
  -7.8106140316721029E-002   1.9647968846713309E-002   0.0000000000000000                1
  -9.7836379790740030E-002   3.9416720100294539E-002   0.0000000000000000                1
 -0.13418291407305058        5.7980150337342003E-002   0.0000000000000000                1
 -0.11839491103705253        5.9160764104725587E-002   0.0000000000000000                1
  -9.8080727267220891E-002   5.9072047648409766E-002   0.0000000000000000                1
  -7.8020654897185737E-002   5.9192450093516702E-002   0.0000000000000000                1
  -9.7945828609314681E-002   7.8795980725638398E-002   0.0000000000000000                1
  -3.8773715874205000E-002   3.8982700712181038E-002   0.0000000000000000                1
  -2.0482004792526064E-009   3.8531066761636201E-002   0.0000000000000000                1
  -3.7008597749280607E-002   7.6928330000320053E-002   0.0000000000000000                1
  -5.8515887805401394E-002   1.9599413796991386E-002   0.0000000000000000                1
  -3.8969615043046218E-002   1.9520455412854711E-002   0.0000000000000000                1
  -5.8360779022520182E-002   3.9255225203077199E-002   0.0000000000000000                1
  -1.9470159015205320E-002   1.9434115035367062E-002   0.0000000000000000                1
  -1.0730465688908467E-009   1.9396368901755584E-002   0.0000000000000000                1
  -1.9336950056987608E-002   3.8666527798999178E-002   0.0000000000000000                1
  -5.8053426641991861E-002   5.9168204333661253E-002   0.0000000000000000                1
  -3.8312577358146027E-002   5.8332655989282889E-002   0.0000000000000000                1
  -5.7621625774256106E-002   8.1253725380425357E-002   0.0000000000000000                1
  -1.9025093127698598E-002   5.7353056347694255E-002   0.0000000000000000                1
  -4.0440381130953678E-009   5.7010460822655221E-002   0.0000000000000000                1
  -1.8492827553586662E-002   7.4971941166199471E-002   0.0000000000000000                1
 -0.11647134365435287       0.11902355829204364        0.0000000000000000                1
 -0.13428998710592724       0.10088912638236652        0.0000000000000000                1
 -0.11836786746166301        9.9045184028906982E-002   0.0000000000000000                1
 -0.13692909260043767       0.11795007696818907        0.0000000000000000                1
  -9.6350639793584242E-002  0.10051223212688949        0.0000000000000000                1
  -7.7155124373021730E-002   9.4634289352168471E-002   0.0000000000000000                1
 -0.10279921069593938       0.11395405806614321        0.0000000000000000                1
 -0.13464629542886905       0.13775864355893019        0.0000000000000000                1
 -0.12218496929529732       0.13218257651766341        0.0000000000000000                1
  -6.5406595829409539E-002   9.3199079573319119E-002   0.0000000000000000                1
 -0.21789635394150550       0.23504756051317627        0.0000000000000000                1
 -0.23739854326586268       0.30220969121414010        0.0000000000000000                1
 -0.18064304762719710       0.19404073463265939        0.0000000000000000                1
 -0.16281444377919982       0.18049894506747094        0.0000000000000000                1
 -0.18650861899685706       0.27284103769101969        0.0000000000000000                1
 -0.18602943831989391       0.30632010431285245        0.0000000000000000                1
 -0.49416245404706971       0.44366942981861718        0.0000000000000000                1
 -0.32761399052636386       0.46281601689786600        0.0000000000000000                1
 -0.55880282248250823       0.37749352816846632        0.0000000000000000                1
 -0.48005354125142646       0.38073282140329129        0.0000000000000000                1
 -0.57096433384970580       0.44113453624780669        0.0000000000000000                1
 -0.39423271545090993       0.39118248000414030        0.0000000000000000                1
 -0.32441378031093138       0.38036526496887318        0.0000000000000000                1
 -0.42499883615416750       0.45038772602068106        0.0000000000000000                1
 -0.36009824131279150       0.42819526796161478        0.0000000000000000                1
 -0.32522116904793741       0.42504637401649897        0.0000000000000000                1
 -0.37096703664077318       0.45880804233056299        0.0000000000000000                1
 -0.15732958454718191       0.46675573272405685        0.0000000000000000                1
  -3.0195572620897730E-003  0.46585704100585734        0.0000000000000000                1
 -0.23643393514554584       0.38825463192130644        0.0000000000000000                1
 -0.15390155847554426       0.38226573228218080        0.0000000000000000                1
 -0.24740171401537603       0.46481500295704026        0.0000000000000000                1
 -0.26997232343276822       0.35322052244767144        0.0000000000000000                1
 -0.23657788624680948       0.34867300610781626        0.0000000000000000                1
 -0.27696202514943408       0.38498723150002212        0.0000000000000000                1
 -0.19517287264911007       0.34807033907167212        0.0000000000000000                1
 -0.15753467095501791       0.34674669575298134        0.0000000000000000                1
 -0.19601788739746745       0.38700850393717573        0.0000000000000000                1
 -0.28197326562426533       0.42539549628044504        0.0000000000000000                1
 -0.24058111814375732       0.42730511044753128        0.0000000000000000                1
 -0.28697244758789464       0.46355345723102670        0.0000000000000000                1
 -0.19593372311094331       0.43079304989340306        0.0000000000000000                1
 -0.15802547837426861       0.41833965098253539        0.0000000000000000                1
 -0.21179078460502757       0.46830401679275496        0.0000000000000000                1
 -0.17704619610299163       0.45076106357925827        0.0000000000000000                1
 -0.15750941847326586       0.44528548903004617        0.0000000000000000                1
 -0.18123303503843280       0.47391530636545165        0.0000000000000000                1
  -8.6491542905718172E-002  0.39810147008207575        0.0000000000000000                1
  -8.0112219150452399E-002  0.46705400563178362        0.0000000000000000                1
 -0.12062626697807741       0.38839578403428071        0.0000000000000000                1
 -0.13843235263116208       0.35417230364479524        0.0000000000000000                1
 -0.13226053323380807       0.36464862316175034        0.0000000000000000                1
 -0.12265176870257763       0.37203221827634958        0.0000000000000000                1
  -9.9394781039994093E-002  0.39633847367122305        0.0000000000000000                1
 -0.10473793834541703       0.44175705298764945        0.0000000000000000                1
  -8.0124793123966434E-002  0.43318234000829242        0.0000000000000000                1
 -0.11575843240409271       0.46445058957042429        0.0000000000000000                1
 -0.10365106580608806       0.41591757486757708        0.0000000000000000                1
  -7.9535786603769101E-002  0.41116490396588851        0.0000000000000000                1
 -0.13239982220559418       0.44182246429284777        0.0000000000000000                1
 -0.13623851051661079       0.46407295597793263        0.0000000000000000                1
  -9.3175087317051403E-002  0.45357914492369772        0.0000000000000000                1
  -7.9084377626621377E-002  0.45077574163779244        0.0000000000000000                1
  -9.7609062872680147E-002  0.46639558517362278        0.0000000000000000                1
  -3.9420244038956512E-002  0.42502719685799351        0.0000000000000000                1
  -3.7941645122100862E-004  0.42831856430584214        0.0000000000000000                1
  -4.2029388188274036E-002  0.46598028063198971        0.0000000000000000                1
  -5.9074215841409192E-002  0.41397583794594733        0.0000000000000000                1
  -4.6863492391729419E-002  0.41384781759349326        0.0000000000000000                1
  -6.0056864379040814E-002  0.43027809363981850        0.0000000000000000                1
  -1.8920834765306080E-002  0.42766737878369482        0.0000000000000000                1
  -6.0015161634541202E-002  0.44846031301594380        0.0000000000000000                1
  -4.0253823119635233E-002  0.44715473940945122        0.0000000000000000                1
  -6.1448989645463262E-002  0.46645017870328465        0.0000000000000000                1
  -2.0557124223052364E-002  0.44707292783274621        0.0000000000000000                1
  -1.2303574450011259E-003  0.44731705202294431        0.0000000000000000                1
  -2.2492904697762151E-002  0.46584916064682469        0.0000000000000000                1
 -0.17134488746490539       0.48720388905474082        0.0000000000000000                1
 -0.15880661617615108       0.48447242931960216        0.0000000000000000                1
 -0.14079229282666933       0.48299234632368643        0.0000000000000000                1
 -0.12160699087385193       0.48280243814206336        0.0000000000000000                1
 -0.10252168561981954       0.48321519668717972        0.0000000000000000                1
  -8.3578709229440898E-002  0.48351462791925037        0.0000000000000000                1
  -6.4415979224631076E-002  0.48350035178954109        0.0000000000000000                1
  -4.4996691003674864E-002  0.48339367733625727        0.0000000000000000                1
  -2.5485591602342858E-002  0.48334390715293768        0.0000000000000000                1
  -5.9735671946626826E-003  0.48333641009125961        0.0000000000000000                1
  0.30127685648161134       0.31779283934270758        0.0000000000000000                1
  0.62052152893093371       0.30652744915364410        0.0000000000000000                1
  0.15812604906695760       0.15389221898167277        0.0000000000000000                1
  0.30283691963621173       0.15004895996704995        0.0000000000000000                1
  0.16289644111768417       0.32334421816242531        0.0000000000000000                1
   7.8227444628836032E-002   7.8308560887991624E-002   0.0000000000000000                1
  0.15043281725809413        7.9406734679874774E-002   0.0000000000000000                1
   3.8773709249648083E-002   3.8982701335460383E-002   0.0000000000000000                1
   7.8072739889747861E-002   3.9353964334243159E-002   0.0000000000000000                1
   3.7008594443683693E-002   7.6928331184061935E-002   0.0000000000000000                1
   1.9470155499888547E-002   1.9434115053862843E-002   0.0000000000000000                1
   3.8969603007369034E-002   1.9520455635164177E-002   0.0000000000000000                1
   1.9336945237979578E-002   3.8666527846422452E-002   0.0000000000000000                1
   5.8515868781452707E-002   1.9599415778755114E-002   0.0000000000000000                1
   7.8106129224539952E-002   1.9647981696286017E-002   0.0000000000000000                1
   5.8360771769232281E-002   3.9255231252876173E-002   0.0000000000000000                1
   1.9025086308218007E-002   5.7353056424104917E-002   0.0000000000000000                1
   3.8312572770099758E-002   5.8332657178616472E-002   0.0000000000000000                1
   1.8492815288779611E-002   7.4971941231935513E-002   0.0000000000000000                1
   5.8053423876424870E-002   5.9168217399081589E-002   0.0000000000000000                1
   7.8020656338388339E-002   5.9192554237886601E-002   0.0000000000000000                1
   5.7621625204914144E-002   8.1253743694313776E-002   0.0000000000000000                1
  0.11733017668720927        3.9744200621330869E-002   0.0000000000000000                1
  0.15964030577275423        4.3931569796120416E-002   0.0000000000000000                1
  0.11939165521438977        7.9175576689486604E-002   0.0000000000000000                1
   9.7709723418127045E-002   1.9731616548695891E-002   0.0000000000000000                1
  0.11734412544234921        2.0043936264495757E-002   0.0000000000000000                1
   9.7836385922407676E-002   3.9416957055057975E-002   0.0000000000000000                1
  0.13736058732701212        2.0553814770842990E-002   0.0000000000000000                1
  0.15806836728935147        2.0030544061293409E-002   0.0000000000000000                1
  0.13678181773576176        4.1805330728932763E-002   0.0000000000000000                1
   9.8080747503842200E-002   5.9072680142400462E-002   0.0000000000000000                1
  0.11839500364672603        5.9163731066577276E-002   0.0000000000000000                1
   9.7945866875327428E-002   7.8797137443892884E-002   0.0000000000000000                1
  0.13418307879821156        5.7985472136086923E-002   0.0000000000000000                1
   6.5406596192201169E-002   9.3199096900913714E-002   0.0000000000000000                1
   7.7155129876733994E-002   9.4634456397438227E-002   0.0000000000000000                1
  0.11647165620375262       0.11903317887550921        0.0000000000000000                1
  0.16184980365532453       0.11815862201357645        0.0000000000000000                1
   9.6350689768468029E-002  0.10051372588721029        0.0000000000000000                1
  0.11836812270451232        9.9053130854037247E-002   0.0000000000000000                1
  0.10279926524721736       0.11395567534851328        0.0000000000000000                1
  0.13429061169223494       0.10090957325817229        0.0000000000000000                1
  0.13693037694876736       0.11799382162794014        0.0000000000000000                1
  0.12218533288830577       0.13219370942531805        0.0000000000000000                1
  0.13464770030922965       0.13780715080331751        0.0000000000000000                1
  0.23460979296285026        7.8849771077138919E-002   0.0000000000000000                1
  0.31968529044568061        8.5396178229342506E-002   0.0000000000000000                1
  0.23823058152937790       0.16632507959060883        0.0000000000000000                1
  0.19202092601132001        3.5702651729406093E-002   0.0000000000000000                1
  0.23458260062446495        3.9151346887316189E-002   0.0000000000000000                1
  0.19506197063485892        7.8739072278004293E-002   0.0000000000000000                1
  0.17423937929086866        1.7236095425205201E-002   0.0000000000000000                1
  0.27492610183569566        4.0399639633774312E-002   0.0000000000000000                1
  0.31632631626911623        3.9261729410445326E-002   0.0000000000000000                1
  0.27412183616639429        8.2085400441272813E-002   0.0000000000000000                1
  0.19653771944383716       0.11914336553329023        0.0000000000000000                1