 VARIABLES = "X", "Y", "Z"
 ZONE F=FEPOINT, ET=BRICK, N=         610 E=         412
  -1.5412778583740112       -3.1407362697055041        6.5521475003276861E-002
  -1.0154002774169117       -3.1643924246415982        7.2105152969934957E-002
 -0.26266526574450533       -3.1974034828610174        5.1209463955959135E-002
  0.52899867821025126       -3.1776199468623414        2.1979306332597291E-002
   1.2632944259204433       -3.1075962423299970        6.5971960458870282E-003
   1.7685972375068932       -3.0571282797697612        2.2549183421621214E-003
  -2.4374635688782411       -2.4374631001945573        9.5001147267129382E-002
  -1.8345617960295380       -2.6249393971338604       0.14144063610196764     
  -1.0069275317510544       -2.4952662550325955       0.24566105422227585     
 -0.25303650118349652       -2.4733824004597773       0.19329159118008821     
  0.50473324984502166       -2.4614493281441061        8.6419350279508186E-002
   1.2453006686459567       -2.4567809636364202        2.4569818795800183E-002
   2.0407976213606807       -2.5436049179337603        3.8750504376676865E-003
   2.6076932756057034       -2.3364384881601916        2.0342187481631629E-003
  -3.1407366374058285       -1.5412778130593792        6.5521425027954092E-002
  -2.6249402547547747       -1.8345615237659498       0.14144047108682717     
  -1.7862105400362096       -1.7862092560288230       0.40485290710621236     
  -1.0180424802319947       -1.7666217942578102       0.56321030471727940     
 -0.25424678540498780       -1.7458687156910553       0.44577188173308818     
  0.50106632013648322       -1.7388505421097820       0.21615876396254474     
   1.2538175751330383       -1.7423213603934404        7.8725043148331425E-002
   1.9953987099256294       -1.7380088956613517        2.7963998733545190E-002
   2.7786633989286074       -1.7503323622904876        7.4723806529308507E-003
   3.2512582491627309       -1.4533618376237472        5.9492941490911586E-003
  -3.1643948046725972       -1.0154003184143523        7.2104781324951892E-002
  -2.4952721288646114       -1.0069275383737351       0.24565889135269472     
  -1.7666322322153853       -1.0180411464214265       0.56320573385525929     
  -1.0097721267006559       -1.0097579094593538       0.77634699822856046     
 -0.25345263034392279       -1.0022817115356910       0.65971184640000036     
  0.50068453799812274      -0.99838011146782568       0.42303113282775578     
   1.2493363102436585      -0.99616934228763032       0.25806014236774721     
   1.9847406809481352      -0.98916982531871844       0.13645641298943140     
   2.6716836929641667      -0.95492480881072384        5.5762382472779128E-002
   3.2760785313500604      -0.92657228954575976        1.7666232608509646E-002
  -3.1974168991616310      -0.26266572221861090        5.1207968700309581E-002
  -2.4734183456912575      -0.25303760808126030       0.19328139252791801     
  -1.7459373405885876      -0.25424738249176893       0.44574708279762465     
  -1.0023815367860265      -0.25343971714574764       0.65968932202121311     
 -0.25102117552211167      -0.25091138582442291       0.74161472388864624     
  0.50133086126286441      -0.24841329163999859       0.79087125007941328     
   1.2496169148412939      -0.24489834828034926       0.71484172317255668     
   1.9809177313966326      -0.23799748340400603       0.43746628125751247     
   2.6720289339538978      -0.22432572499852324       0.17584918508295994     
   3.3202886268255942      -0.19194988792598991        4.9995690286222659E-002
  -3.1776744948294815       0.52899674466457725        2.1976736015854943E-002
  -2.4616140375862607       0.50472752120911768        8.6398162961474984E-002
  -1.7391944940318782       0.50105570949972178       0.21608520745876403     
 -0.99890833471766349       0.50068041240709016       0.42284273123552046     
 -0.24901882934854083       0.50140968213915127       0.79049748654874308     
  0.50360803397538267       0.50411865055307747        1.2508428361338508     
   1.2550868903526482       0.50928928042108046        1.3061659868410609     
   2.0028619590242061       0.51694393853422815       0.80990394395106668     
   2.7119227142841646       0.50518885337459740       0.30682089319235856     
   3.3441257751753453       0.50489718056125810        8.5065452704848318E-002
  -3.1077414487607307        1.2632892531531288        6.5951600489560858E-003
  -2.4573245767225327        1.2452813832528575        2.4547267951876159E-002
  -1.7436328348813959        1.2537720047045762        7.8564882031844516E-002
 -0.99834135002879931        1.2492693037927662       0.25721442359616242     
 -0.24745593268664490        1.2495946052743303       0.71280254422124900     
  0.50712789502572164        1.2553558239696543        1.3047603143062165     
   1.2612366446006553        1.2625136145328490        1.4050791757652983     
   2.0167967511975231        1.2762986958237341       0.86160892982263426     
   2.8748658407258261        1.3205620735270807       0.24576919536392802     
   3.3722453725677775       0.99423836332152726        8.9973062817168090E-002
  -3.0573217683114748        1.7685903384835071        2.2539448382881194E-003
  -2.5447223703102702        2.0407578181585646        3.8650589168667026E-003
  -1.7417948630646503        1.9952643697665990        2.7729249227837212E-002
 -0.99625004302065401        1.9844940128057629       0.13470432951944064     
 -0.24667602519871334        1.9806445627049920       0.43300891254059681     
  0.50986923717636579        2.0027775507056913       0.80722653561338265     
   1.2725257420062981        2.0172320872564162       0.86212365127247281     
   2.0018291188978039        2.0030952789787038       0.54919611485527942     
   2.6507329226846736        2.0754586120528056       0.21539949781569179     
  -2.3381049278459205        2.6076338532591494        2.0247056876881980E-003
  -1.7576254437255199        2.7784035291832017        7.3338831531456665E-003
 -0.97396490724770646        2.6710070986821548        5.3810338545685697E-002
 -0.24910736688325336        2.6711594554814235       0.17082308333505966     
  0.48615202419401343        2.7113017653198144       0.30422218971033571     
   1.3132878693294567        2.8747565356499845       0.24638734146841718     
   2.0740341343121069        2.6509865309421823       0.21563923563937112     
   2.5233966837582371        2.5237067808456506       0.14723517538308431     
  -1.4647215609647559        3.2508530740936927        5.7925510575070945E-003
 -0.96778034661505874        3.2746094504994128        1.6365280614718626E-002
 -0.25887352621796650        3.3179055941977325        4.6321058723394815E-002
  0.46369058478663577        3.3426690172004010        8.3563302906971490E-002
  0.98288118185497475        3.3718586631127248        9.0044104912252426E-002
  -2.3285924036888175       -3.2523310743961380        2.4557691294383174E-002
  -1.8335441519349611       -3.5550127767569419        2.0260473664804993E-002
  -1.1675853264528164       -3.8257998517240903        1.3647418591423599E-002
 -0.30678624909143515       -3.9882179225022809        6.7899882973420159E-003
  0.60822889882053965       -3.9534867657094228        2.6321822992048873E-003
   1.4286652761426821       -3.7361632095967319        9.4855266361878402E-004
   2.0490569130437470       -3.4353115967998638        4.1649523560920718E-004
   2.5189079936378249       -3.1072660844522906        2.6948121802108048E-004
   2.9669844321257965       -2.6827231276304242        3.1563262235589386E-004
   3.3475599716134004       -2.1894844681914716        6.1843957674713229E-004
   3.6099615989658647       -1.7228398805436962        1.2358437894386253E-003
   3.8485258153491801       -1.0903435461316440        2.9253404214042468E-003
   4.0000000000000000       -9.7971743931788257E-016   1.0108615745683426E-002
   3.9613791504720064       0.55450448709247147        1.6931296925539657E-002
   3.8008966054444047        1.2462684280367542        2.8800883879335677E-002
   3.6016174775355054        1.7402159479532366        3.8670045050184697E-002
   3.2349442658029699        2.3526868888886350        4.9444881795776774E-002
   2.8284270241527447        2.8284272253396319        5.2988808919695235E-002
   2.3526868888886363        3.2349442658029690        4.9444881795776816E-002
   1.7402159479532362        3.6016174775355059        3.8670045050184648E-002
   1.2462684280367511        3.8008966054444056        2.8800883879335638E-002
  0.55450448709247213        3.9613791504720064        1.6931296925539657E-002
 -0.28498846185818261        3.9898347806153209        7.5260424937469341E-003
  -1.0903435461316446        3.8485258153491797        2.9253404214042442E-003
  -1.7228407450622267        3.6099611863776917        1.2358422469532643E-003
  -2.1894844681914716        3.3475599716133999        6.1843957674713283E-004
  -2.6827231276304246        2.9669844321257961        3.1563262235589386E-004
  -3.1072660844522919        2.5189079936378231        2.6948121802108086E-004
  -3.4353115967998633        2.0490569130437484        4.1649523560920577E-004
  -3.7361632095967336        1.4286652761426784        9.4855266361878890E-004
  -3.9534867657094233       0.60822889882053732        2.6321822992048916E-003
  -3.9882179225022805      -0.30678624909143570        6.7899882973420219E-003
  -3.8257998517240894       -1.1675853264528189        1.3647418591423622E-002
  -3.5550127767569402       -1.8335441519349649        2.0260473664805028E-002
  -3.2523310743961376       -2.3285924036888175        2.4557691294383215E-002
  -2.8284278508260008       -2.8284263986661928        2.6494889482023398E-002
  -1.5412778583740112       -3.1407362697055041       0.79914110625245760     
  -1.0154002774169117       -3.1643924246415982       0.80407886472745127     
 -0.26266526574450533       -3.1974034828610174       0.78840709796696939     
  0.52899867821025126       -3.1776199468623414       0.76648447974944800     
   1.2632944259204433       -3.1075962423299970       0.75494789703441523     
   1.7685972375068932       -3.0571282797697612       0.75169118875662155     
  -2.4374635688782411       -2.4374631001945573       0.82125086045034701     
  -1.8345617960295380       -2.6249393971338604       0.85608047707647572     
  -1.0069275317510544       -2.4952662550325955       0.93424579066670688     
 -0.25303650118349652       -2.4733824004597773       0.89496869338506613     
  0.50473324984502166       -2.4614493281441061       0.81481451270963112     
   1.2453006686459567       -2.4567809636364202       0.76842736409685009     
   2.0407976213606807       -2.5436049179337603       0.75290628782825075     
   2.6076932756057034       -2.3364384881601916       0.75152566406112242     
  -3.1407366374058285       -1.5412778130593792       0.79914106877096558     
  -2.6249402547547747       -1.8345615237659498       0.85608035331512033     
  -1.7862105400362096       -1.7862092560288230        1.0536396803296593     
  -1.0180424802319947       -1.7666217942578102        1.1724077285379595     
 -0.25424678540498780       -1.7458687156910553        1.0843289112998162     
  0.50106632013648322       -1.7388505421097820       0.91211907297190853     
   1.2538175751330383       -1.7423213603934404       0.80904378236124852     
   1.9953987099256294       -1.7380088956613517       0.77097299905015892     
   2.7786633989286074       -1.7503323622904876       0.75560428548969816     
   3.2512582491627309       -1.4533618376237472       0.75446197061181841     
  -3.1643948046725972       -1.0154003184143523       0.80407858599371396     
  -2.4952721288646114       -1.0069275383737351       0.93424416851452108     
  -1.7666322322153853       -1.0180411464214265        1.1724043003914444     
  -1.0097721267006559       -1.0097579094593538        1.3322602486714203     
 -0.25345263034392279       -1.0022817115356910        1.2447838848000004     
  0.50068453799812274      -0.99838011146782568        1.0672733496208169     
   1.2493363102436585      -0.99616934228763032       0.94354510677581038     
   1.9847406809481352      -0.98916982531871844       0.85234230974207359     
   2.6716836929641667      -0.95492480881072384       0.79182178685458438     
   3.2760785313500604      -0.92657228954575976       0.76324967445638225     
  -3.1974168991616310      -0.26266572221861090       0.78840597652523214     
  -2.4734183456912575      -0.25303760808126030       0.89496104439593849     
  -1.7459373405885876      -0.25424738249176893        1.0843103120982185     
  -1.0023815367860265      -0.25343971714574764        1.2447669915159099     
 -0.25102117552211167      -0.25091138582442291        1.3062110429164848     
  0.50133086126286441      -0.24841329163999859        1.3431534375595600     
   1.2496169148412939      -0.24489834828034926        1.2861312923794175     
   1.9809177313966326      -0.23799748340400603        1.0780997109431343     
   2.6720289339538978      -0.22432572499852324       0.88188688881221999     
   3.3202886268255942      -0.19194988792598991       0.78749676771466703     
  -3.1776744948294815       0.52899674466457725       0.76648255201189119     
  -2.4616140375862607       0.50472752120911768       0.81479862222110622     
  -1.7391944940318782       0.50105570949972178       0.91206390559407302     
 -0.99890833471766349       0.50068041240709016        1.0671320484266404     
 -0.24901882934854083       0.50140968213915127        1.3428731149115574     
  0.50360803397538267       0.50411865055307747        1.6881321271003882     
   1.2550868903526482       0.50928928042108046        1.7296244901307958     
   2.0028619590242061       0.51694393853422815        1.3574279579633000     
   2.7119227142841646       0.50518885337459740       0.98011566989426890     
   3.3441257751753453       0.50489718056125810       0.81379908952863622     
  -3.1077414487607307        1.2632892531531288       0.75494637003671705     
  -2.4573245767225327        1.2452813832528575       0.76841045096390714     
  -1.7436328348813959        1.2537720047045762       0.80892366152388340     
 -0.99834135002879931        1.2492693037927662       0.94291081769712182     
 -0.24745593268664490        1.2495946052743303        1.2846019081659368     
  0.50712789502572164        1.2553558239696543        1.7285702357296624     
   1.2612366446006553        1.2625136145328490        1.8038093818239738     
   2.0167967511975231        1.2762986958237341        1.3962066973669756     
   2.8748658407258261        1.3205620735270807       0.93432689652294598     
   3.3722453725677775       0.99423836332152726       0.81747979711287611     
  -3.0573217683114748        1.7685903384835071       0.75169045862871608     
  -2.5447223703102702        2.0407578181585646       0.75289879418765004     
  -1.7417948630646503        1.9952643697665990       0.77079693692087792     
 -0.99625004302065401        1.9844940128057629       0.85102824713958047     
 -0.24667602519871334        1.9806445627049920        1.0747566844054477     
  0.50986923717636579        2.0027775507056913        1.3554199017100370     
   1.2725257420062981        2.0172320872564162        1.3965927384543546     
   2.0018291188978039        2.0030952789787038        1.1618970861414595     
   2.6507329226846736        2.0754586120528056       0.91154962336176881     
  -2.3381049278459205        2.6076338532591494       0.75151852926576612     
  -1.7576254437255199        2.7784035291832017       0.75550041236485921     
 -0.97396490724770646        2.6710070986821548       0.79035775390926433     
 -0.24910736688325336        2.6711594554814235       0.87811731250129477     
  0.48615202419401343        2.7113017653198144       0.97816664228275174     
   1.3132878693294567        2.8747565356499845       0.93479050610131287     
   2.0740341343121069        2.6509865309421823       0.91172942672952839     
   2.5233966837582371        2.5237067808456506       0.86042638153731321     
  -1.4647215609647559        3.2508530740936927       0.75434441329313029     
 -0.96778034661505874        3.2746094504994128       0.76227396046103901     
 -0.25887352621796650        3.3179055941977325       0.78474079404254615     
  0.46369058478663577        3.3426690172004010       0.81267247718022861     
  0.98288118185497475        3.3718586631127248       0.81753307868418934     
  -2.3285924036888175       -3.2523310743961380       0.76841826847078742     
  -1.8335441519349611       -3.5550127767569419       0.76519535524860371     
  -1.1675853264528164       -3.8257998517240903       0.76023556394356773     
 -0.30678624909143515       -3.9882179225022809       0.75509249122300648     
  0.60822889882053965       -3.9534867657094228       0.75197413672440372     
   1.4286652761426821       -3.7361632095967319       0.75071141449771406     
   2.0490569130437470       -3.4353115967998638       0.75031237142670693     
   2.5189079936378249       -3.1072660844522906       0.75020211091351585     
   2.9669844321257965       -2.6827231276304242       0.75023672446676692     
   3.3475599716134004       -2.1894844681914716       0.75046382968256031     
   3.6099615989658647       -1.7228398805436962       0.75092688284207898     
   3.8485258153491801       -1.0903435461316440       0.75219400531605318     
   4.0000000000000000       -9.7971743931788257E-016  0.75758146180926256     
   3.9613791504720064       0.55450448709247147       0.76269847269415469     
   3.8008966054444047        1.2462684280367542       0.77160066290950180     
   3.6016174775355054        1.7402159479532366       0.77900253378763851     
   3.2349442658029699        2.3526868888886350       0.78708366134683261     
   2.8284270241527447        2.8284272253396319       0.78974160668977145     
   2.3526868888886363        3.2349442658029690       0.78708366134683261     
   1.7402159479532362        3.6016174775355059       0.77900253378763851     
   1.2462684280367511        3.8008966054444056       0.77160066290950169     
  0.55450448709247213        3.9613791504720064       0.76269847269415469     
 -0.28498846185818261        3.9898347806153209       0.75564453187031022     
  -1.0903435461316446        3.8485258153491797       0.75219400531605318     
  -1.7228407450622267        3.6099611863776917       0.75092688168521493     
  -2.1894844681914716        3.3475599716133999       0.75046382968256031     
  -2.6827231276304246        2.9669844321257961       0.75023672446676692     
  -3.1072660844522919        2.5189079936378231       0.75020211091351585     
  -3.4353115967998633        2.0490569130437484       0.75031237142670693     
  -3.7361632095967336        1.4286652761426784       0.75071141449771406     
  -3.9534867657094233       0.60822889882053732       0.75197413672440372     
  -3.9882179225022805      -0.30678624909143570       0.75509249122300648     
  -3.8257998517240894       -1.1675853264528189       0.76023556394356773     
  -3.5550127767569402       -1.8335441519349649       0.76519535524860371     
  -3.2523310743961376       -2.3285924036888175       0.76841826847078742     
  -2.8284278508260008       -2.8284263986661928       0.76987116711151760     
  -1.5412778583740112       -3.1407362697055041        1.5327607375016383     
  -1.0154002774169117       -3.1643924246415982        1.5360525764849675     
 -0.26266526574450533       -3.1974034828610174        1.5256047319779795     
  0.52899867821025126       -3.1776199468623414        1.5109896531662987     
   1.2632944259204433       -3.1075962423299970        1.5032985980229434     
   1.7685972375068932       -3.0571282797697612        1.5011274591710810     
  -2.4374635688782411       -2.4374631001945573        1.5475005736335647     
  -1.8345617960295380       -2.6249393971338604        1.5707203180509839     
  -1.0069275317510544       -2.4952662550325955        1.6228305271111378     
 -0.25303650118349652       -2.4733824004597773        1.5966457955900442     
  0.50473324984502166       -2.4614493281441061        1.5432096751397542     
   1.2453006686459567       -2.4567809636364202        1.5122849093979001     
   2.0407976213606807       -2.5436049179337603        1.5019375252188338     
   2.6076932756057034       -2.3364384881601916        1.5010171093740816     
  -3.1407366374058285       -1.5412778130593792        1.5327607125139771     
  -2.6249402547547747       -1.8345615237659498        1.5707202355434136     
  -1.7862105400362096       -1.7862092560288230        1.7024264535531062     
  -1.0180424802319947       -1.7666217942578102        1.7816051523586398     
 -0.25424678540498780       -1.7458687156910553        1.7228859408665440     
  0.50106632013648322       -1.7388505421097820        1.6080793819812724     
   1.2538175751330383       -1.7423213603934404        1.5393625215741658     
   1.9953987099256294       -1.7380088956613517        1.5139819993667727     
   2.7786633989286074       -1.7503323622904876        1.5037361903264654     
   3.2512582491627309       -1.4533618376237472        1.5029746470745455     
  -3.1643948046725972       -1.0154003184143523        1.5360523906624759     
  -2.4952721288646114       -1.0069275383737351        1.6228294456763475     
  -1.7666322322153853       -1.0180411464214265        1.7816028669276296     
  -1.0097721267006559       -1.0097579094593538        1.8881734991142802     
 -0.25345263034392279       -1.0022817115356910        1.8298559232000002     
  0.50068453799812274      -0.99838011146782568        1.7115155664138779     
   1.2493363102436585      -0.99616934228763032        1.6290300711838737     
   1.9847406809481352      -0.98916982531871844        1.5682282064947157     
   2.6716836929641667      -0.95492480881072384        1.5278811912363897     
   3.2760785313500604      -0.92657228954575976        1.5088331163042548     
  -3.1974168991616310      -0.26266572221861090        1.5256039843501548     
  -2.4734183456912575      -0.25303760808126030        1.5966406962639590     
  -1.7459373405885876      -0.25424738249176893        1.7228735413988123     
  -1.0023815367860265      -0.25343971714574764        1.8298446610106065     
 -0.25102117552211167      -0.25091138582442291        1.8708073619443231     
  0.50133086126286441      -0.24841329163999859        1.8954356250397066     
   1.2496169148412939      -0.24489834828034926        1.8574208615862784     
   1.9809177313966326      -0.23799748340400603        1.7187331406287563     
   2.6720289339538978      -0.22432572499852324        1.5879245925414800     
   3.3202886268255942      -0.19194988792598991        1.5249978451431114     
  -3.1776744948294815       0.52899674466457725        1.5109883680079275     
  -2.4616140375862607       0.50472752120911768        1.5431990814807375     
  -1.7391944940318782       0.50105570949972178        1.6080426037293820     
 -0.99890833471766349       0.50068041240709016        1.7114213656177601     
 -0.24901882934854083       0.50140968213915127        1.8952487432743714     
  0.50360803397538267       0.50411865055307747        2.1254214180669253     
   1.2550868903526482       0.50928928042108046        2.1530829934205302     
   2.0028619590242061       0.51694393853422815        1.9049519719755335     
   2.7119227142841646       0.50518885337459740        1.6534104465961792     
   3.3441257751753453       0.50489718056125810        1.5425327263524242     
  -3.1077414487607307        1.2632892531531288        1.5032975800244781     
  -2.4573245767225327        1.2452813832528575        1.5122736339759382     
  -1.7436328348813959        1.2537720047045762        1.5392824410159223     
 -0.99834135002879931        1.2492693037927662        1.6286072117980812     
 -0.24745593268664490        1.2495946052743303        1.8564012721106244     
  0.50712789502572164        1.2553558239696543        2.1523801571531083     
   1.2612366446006553        1.2625136145328490        2.2025395878826490     
   2.0167967511975231        1.2762986958237341        1.9308044649113172     
   2.8748658407258261        1.3205620735270807        1.6228845976819639     
   3.3722453725677775       0.99423836332152726        1.5449865314085840     
  -3.0573217683114748        1.7685903384835071        1.5011269724191441     
  -2.5447223703102702        2.0407578181585646        1.5019325294584334     
  -1.7417948630646503        1.9952643697665990        1.5138646246139187     
 -0.99625004302065401        1.9844940128057629        1.5673521647597204     
 -0.24667602519871334        1.9806445627049920        1.7165044562702985     
  0.50986923717636579        2.0027775507056913        1.9036132678066913     
   1.2725257420062981        2.0172320872564162        1.9310618256362364     
   2.0018291188978039        2.0030952789787038        1.7745980574276397     
   2.6507329226846736        2.0754586120528056        1.6076997489078459     
  -2.3381049278459205        2.6076338532591494        1.5010123528438442     
  -1.7576254437255199        2.7784035291832017        1.5036669415765729     
 -0.97396490724770646        2.6710070986821548        1.5269051692728428     
 -0.24910736688325336        2.6711594554814235        1.5854115416675298     
  0.48615202419401343        2.7113017653198144        1.6521110948551678     
   1.3132878693294567        2.8747565356499845        1.6231936707342085     
   2.0740341343121069        2.6509865309421823        1.6078196178196855     
   2.5233966837582371        2.5237067808456506        1.5736175876915421     
  -1.4647215609647559        3.2508530740936927        1.5028962755287536     
 -0.96778034661505874        3.2746094504994128        1.5081826403073593     
 -0.25887352621796650        3.3179055941977325        1.5231605293616974     
  0.46369058478663577        3.3426690172004010        1.5417816514534857     
  0.98288118185497475        3.3718586631127248        1.5450220524561262     
  -2.3285924036888175       -3.2523310743961380        1.5122788456471916     
  -1.8335441519349611       -3.5550127767569419        1.5101302368324026     
  -1.1675853264528164       -3.8257998517240903        1.5068237092957117     
 -0.30678624909143515       -3.9882179225022809        1.5033949941486711     
  0.60822889882053965       -3.9534867657094228        1.5013160911496024     
   1.4286652761426821       -3.7361632095967319        1.5004742763318093     
   2.0490569130437470       -3.4353115967998638        1.5002082476178047     
   2.5189079936378249       -3.1072660844522906        1.5001347406090106     
   2.9669844321257965       -2.6827231276304242        1.5001578163111779     
   3.3475599716134004       -2.1894844681914716        1.5003092197883736     
   3.6099615989658647       -1.7228398805436962        1.5006179218947193     
   3.8485258153491801       -1.0903435461316440        1.5014626702107021     
   4.0000000000000000       -9.7971743931788257E-016   1.5050543078728418     
   3.9613791504720064       0.55450448709247147        1.5084656484627699     
   3.8008966054444047        1.2462684280367542        1.5144004419396679     
   3.6016174775355054        1.7402159479532366        1.5193350225250923     
   3.2349442658029699        2.3526868888886350        1.5247224408978883     
   2.8284270241527447        2.8284272253396319        1.5264944044598476     
   2.3526868888886363        3.2349442658029690        1.5247224408978883     
   1.7402159479532362        3.6016174775355059        1.5193350225250923     
   1.2462684280367511        3.8008966054444056        1.5144004419396677     
  0.55450448709247213        3.9613791504720064        1.5084656484627699     
 -0.28498846185818261        3.9898347806153209        1.5037630212468736     
  -1.0903435461316446        3.8485258153491797        1.5014626702107021     
  -1.7228407450622267        3.6099611863776917        1.5006179211234767     
  -2.1894844681914716        3.3475599716133999        1.5003092197883736     
  -2.6827231276304246        2.9669844321257961        1.5001578163111779     
  -3.1072660844522919        2.5189079936378231        1.5001347406090106     
  -3.4353115967998633        2.0490569130437484        1.5002082476178047     
  -3.7361632095967336        1.4286652761426784        1.5004742763318093     
  -3.9534867657094233       0.60822889882053732        1.5013160911496024     
  -3.9882179225022805      -0.30678624909143570        1.5033949941486711     
  -3.8257998517240894       -1.1675853264528189        1.5068237092957117     
  -3.5550127767569402       -1.8335441519349649        1.5101302368324026     
  -3.2523310743961376       -2.3285924036888175        1.5122788456471916     
  -2.8284278508260008       -2.8284263986661928        1.5132474447410118     
  -1.5412778583740112       -3.1407362697055041        2.2663803687508191     
  -1.0154002774169117       -3.1643924246415982        2.2680262882424835     
 -0.26266526574450533       -3.1974034828610174        2.2628023659889900     
  0.52899867821025126       -3.1776199468623414        2.2554948265831491     
   1.2632944259204433       -3.1075962423299970        2.2516492990114716     
   1.7685972375068932       -3.0571282797697612        2.2505637295855405     
  -2.4374635688782411       -2.4374631001945573        2.2737502868167825     
  -1.8345617960295380       -2.6249393971338604        2.2853601590254917     
  -1.0069275317510544       -2.4952662550325955        2.3114152635555691     
 -0.25303650118349652       -2.4733824004597773        2.2983228977950221     
  0.50473324984502166       -2.4614493281441061        2.2716048375698770     
   1.2453006686459567       -2.4567809636364202        2.2561424546989501     