 VARIABLES = "X", "Y", "Z"
 ZONE F=FEPOINT, ET=BRICK, N=         755 E=         528
  -1.5410307188836347       -3.1405573389079020        7.7499981813798201E-006
  -1.0149979157876499       -3.1641296993744699        2.2400220727232647E-005
 -0.26220822911191838       -3.1971175466918171        6.4021096867871447E-005
  0.52930927896634261       -3.1773661603181202        1.4105570118426938E-004
   1.2633294698241344       -3.1073851528563288        2.3712260676749349E-004
   1.7684622590394208       -3.0569691813025841        2.5739776172172479E-004
  -2.4371055220931384       -2.4371050623621020        1.1798418676866042E-005
  -1.8337558354218408       -2.6242642447403508        3.2429855611583385E-005
  -1.0052636060831297       -2.4941212707580385        4.5182836079699410E-004
 -0.25106592473881784       -2.4722072056171971        1.7048856430697101E-003
  0.50608116932795488       -2.4605058578349626        3.4333405881791525E-003
   1.2453510333028113       -2.4560263671990596        3.8136993488627510E-003
   2.0398505630924446       -2.5429720739377557        1.5498454072373118E-003
   2.6063329869631393       -2.3357794215647929        1.5465183283979282E-003
  -3.1405576837478271       -1.5410306745030371        7.7499819273523637E-006
  -2.6242650203005824       -1.8337555845375240        3.2429759718761429E-005
  -1.7837226705228546       -1.7837216342823656        6.3251794253242014E-004
  -1.0127586363376719       -1.7625705087239432        4.2830153765389470E-003
 -0.24747192332647233       -1.7419986502283245        1.5809344113123874E-002
  0.50573576300004830       -1.7362051888779451        3.0749939491635698E-002
   1.2538372866179239       -1.7403480395449986        3.3180596341190818E-002
   1.9911801481703897       -1.7359178454498254        2.1267750920565230E-002
   2.7737780306059490       -1.7478533455160128        7.0563511948767491E-003
   3.2466669496578930       -1.4502343577261831        6.0607332627413656E-003
  -3.1641319492090103       -1.0149979557501481        2.2399912044838717E-005
  -2.4941265608720133       -1.0052636451254648        4.5181711652113093E-004
  -1.7625790480595163       -1.0127578198861151        4.2829298207986543E-003
 -0.99649783346210519      -0.99648818370523418        2.7875649993130951E-002
 -0.23269356519694756      -0.99123266938241061        9.7236736835527665E-002
  0.51403712086702702      -0.99378189243784665       0.18259957638236185     
   1.2491674564663067      -0.99078789130809253       0.19988396390007254     
   1.9726754064780647      -0.98610408468626687       0.12994025691031380     
   2.6543579989000725      -0.94669458258397976        5.7973773159030975E-002
   3.2661417903798746      -0.91670942210952022        1.8520723724703755E-002
  -3.1971304142795023      -0.26220867150159083        6.4016671363212844E-005
  -2.4722403513871862      -0.25106701684589494        1.7046583384691442E-003
  -1.7420568623936092      -0.24747315441161308        1.5806967858097140E-002
 -0.99130419367961142      -0.23268868906033283        9.7222984203815033E-002
 -0.17000930727562827      -0.16995566435579315       0.38650074682281921     
  0.51978830076293048      -0.33074014920902717       0.55208028399943032     
   1.2492013705557374      -0.13507408724270095       0.76560169727350069     
   1.9640533731050092      -0.32298167240041920       0.39294656366675396     
   2.6086549678487398      -0.15299797415013761       0.21397377042516269     
   3.3152046412194776      -0.17850031660489121        5.2163621378474911E-002
  -3.1774190817264421       0.52930739698289597        1.4101215017744710E-004
  -2.4606610502152901       0.50607567790646646        3.4313655678522201E-003
  -1.7365090975218593       0.50572533363497751        3.0725873400244220E-002
 -0.99418378867114887       0.51402562766177995       0.18244705705685221     
 -0.33106608291560191       0.51978324556631805       0.55183246401798680     
  0.50366068030170763       0.50369940731393315        1.1720319201516496     
   1.2536579831612300       0.45643207468420172        1.2508416065209573     
   2.0128986922232546       0.51359973587872254       0.79810475078917276     
   2.8093614680801164       0.50320164611736773       0.26010071633609289     
   3.3476165734545029       0.50320267546406394        8.5260193675852872E-002
  -3.1075271189957943        1.2633244067925182        2.3689741901602556E-004
  -2.4565477886837854        1.2453324475472507        3.8065690115746771E-003
  -1.7415515218542972        1.2537944704485959        3.3079049884165421E-002
 -0.99258286490553094        1.2491038616082761       0.19914820738894798     
 -0.13657884087557143        1.2491494116185693       0.76431962104751183     
  0.45603938370952751        1.2536493374138182        1.2505919004680159     
   1.2595673345419158        1.2596700171145974        1.3920927054092473     
   2.0959207205385244        1.3417111238965558       0.77709533400034903     
   2.8078028832536628        1.2426141272079605       0.28561424310591305     
   3.3683470070175048       0.97646967525049144        9.1944405420487124E-002
  -3.0571591376031484        1.7684554823257741        2.5707135266376439E-004
  -2.5440582290790075        2.0398118172307189        1.5416179579621891E-003
  -1.7395129365015416        1.9910519211968658        2.1075426618188613E-002
 -0.99238962303729961        1.9724513054685133       0.12829453532590962     
 -0.32950212333900603        1.9638210409131449       0.38954513017303138     
  0.51110594471669868        2.0128138811032716       0.79729558192475303     
   1.3401478532040372        2.0959911110330012       0.77744841142731114     
   1.9284910425582331        1.9291881997683173       0.62886939707435130     
   2.6285927290584725        2.0508829666498145       0.23134283793642002     
  -2.3374135768312554        2.6062746860845905        1.5400265606781639E-003
  -1.7549578430157222        2.7735245788788361        6.9329474665260384E-003
 -0.96479506861320319        2.6537124463515700        5.5953793762226249E-002
 -0.17369081280067064        2.6079179120215095       0.20913121603794138     
  0.48510136225543865        2.8087235339960670       0.25826473981038023     
   1.2363791996851896        2.8076402815476618       0.28615109660247884     
   2.0498067455544473        2.6287413420823742       0.23153622505665852     
   2.5054348821769938        2.5056576804036412       0.15556894339842864     
  -1.4614438903006077        3.2462670153411448        5.8919760386094578E-003
 -0.95740411594026309        3.2646902790086587        1.7132467903541532E-002
 -0.24461328632050711        3.3128471566387021        4.8348868928538777E-002
  0.46259225510442431        3.3461722402277587        8.3914120646557885E-002
  0.96542296725987253        3.3679603451057472        9.1991045781606329E-002
  0.18196016282472274       0.18199536079054132       0.76486710822151460     
  0.51308134511065329       0.14323628507203506       0.91955801569110696     
  0.14309094795681568       0.51309033347211708       0.91944470294841152     
  0.83657083649648378       0.17501980471522893        1.0485171205032109     
  0.86722052609029388       0.47745804057226848        1.2965255583603681     
   1.6661078535790201       0.17870410970874626       0.85748519522742483     
   1.9848806621731001       0.14882861749097034       0.64028149163443915     
   1.6430446186608554       0.48492567029074113        1.0717881005982304     
   2.3096616027673202       0.18662503055882920       0.45751495619513805     
   2.3771864757490255       0.51786391825715905       0.51707854868039660     
  0.17476723185277623       0.83656556225151235        1.0482906238312442     
  0.47730342912861373       0.86722902722287565        1.2964306612440939     
  0.86657008482072040       0.86661808370028559        1.4690737415170301     
   1.2560315016319470       0.86928613617410433        1.4320295721487717     
  0.86911819847948357        1.2560506350533576        1.4319864395072750     
   1.6517734277152178       0.88604178336697970        1.2065875305545630     
   2.0627584614422911       0.89239869803856509       0.85034421954004391     
   1.6453714743203376        1.2920835968569508        1.1654478893106199     
   2.3808216124960011       0.85059657477398665       0.57089961529741728     
  0.17714756318522157        1.6660530164749725       0.85638477241294853     
  0.48397397906314965        1.6430147685994394        1.0713291140257464     
  0.14453016715849346        1.9847281226849578       0.63797396928580863     
  0.88544999009917924        1.6517762564146374        1.2064914327826073     
   1.2916607561657705        1.6454684807296915        1.1655208799338828     
  0.89046994598679730        2.0627132933170471       0.85017765218487262     
   1.6021462655361387        1.6024112835660631        1.0493454301569334     
  0.17888733242454183        2.3093866968693666       0.45470138015997130     
  0.51115654313378089        2.3769533547331205       0.51573335588026237     
  0.84636441294673781        2.3806872378250015       0.57059751419105087     
  -2.3285924036888175       -3.2523310743961380        4.1986224897097150E-007
  -1.8335441519349611       -3.5550127767569419        6.6801044549273218E-007
  -1.1675853264528164       -3.8257998517240903        5.3015041753717871E-007
 -0.30678624909143515       -3.9882179225022809        2.6545294750945708E-006
  0.60822889882053965       -3.9534867657094228        6.6887185349718709E-006
   1.4286652761426821       -3.7361632095967319        5.3638567109671053E-006
   2.0490569130437470       -3.4353115967998638        4.7082207350398896E-005
   2.5189079936378249       -3.1072660844522906        7.7873775281680628E-005
   2.9669844321257965       -2.6827231276304242        2.0085685981251992E-004
   3.3475599716134004       -2.1894844681914716        5.4666528029408427E-004
   3.6099615989658647       -1.7228398805436962        1.1635092539164027E-003
   3.8485258153491801       -1.0903435461316440        2.9293527440164024E-003
   4.0000000000000000       -9.7971743931788257E-016   1.0106920498628207E-002
   3.9613791504720064       0.55450448709247147        1.7206222572773704E-002
   3.8008966054444047        1.2462684280367542        2.8514702727493693E-002
   3.6016174775355054        1.7402159479532366        3.7753462267722429E-002
   3.2349442658029699        2.3526868888886350        4.9633192052875447E-002
   2.8284270241527447        2.8284272253396319        5.3848648124920725E-002
   2.3526868888886363        3.2349442658029690        4.9633192052875447E-002
   1.7402159479532362        3.6016174775355059        3.7753462267722394E-002
   1.2462684280367511        3.8008966054444056        2.8514702727493645E-002
  0.55450448709247213        3.9613791504720064        1.7206222572773697E-002
 -0.28498846185818261        3.9898347806153209        7.6056946246579535E-003
  -1.0903435461316446        3.8485258153491797        2.9293527440164011E-003
  -1.7228407450622267        3.6099611863776917        1.1635079721966542E-003
  -2.1894844681914716        3.3475599716133999        5.4666528029408503E-004
  -2.6827231276304246        2.9669844321257961        2.0085685981251921E-004
  -3.1072660844522919        2.5189079936378231        7.7873775281680100E-005
  -3.4353115967998633        2.0490569130437484        4.7082207350398882E-005
  -3.7361632095967336        1.4286652761426784        5.3638567109670561E-006
  -3.9534867657094233       0.60822889882053732        6.6887185349718582E-006
  -3.9882179225022805      -0.30678624909143570        2.6545294750945776E-006
  -3.8257998517240894       -1.1675853264528189        5.3015041753717363E-007
  -3.5550127767569402       -1.8335441519349649        6.6801044549273567E-007
  -3.2523310743961376       -2.3285924036888175        4.1986224897097203E-007
  -2.8284278508260008       -2.8284263986661928        5.0870766793541953E-007
  -1.5410307188836347       -3.1405573389079020       0.75000581249863607     
  -1.0149979157876499       -3.1641296993744699       0.75001680016554539     
 -0.26220822911191838       -3.1971175466918171       0.75004801582265090     
  0.52930927896634261       -3.1773661603181202       0.75010579177588821     
   1.2633294698241344       -3.1073851528563288       0.75017784195507564     
   1.7684622590394208       -3.0569691813025841       0.75019304832129130     
  -2.4371055220931384       -2.4371050623621020       0.75000884881400764     
  -1.8337558354218408       -2.6242642447403508       0.75002432239170869     
  -1.0052636060831297       -2.4941212707580385       0.75033887127059773     
 -0.25106592473881784       -2.4722072056171971       0.75127866423230227     
  0.50608116932795488       -2.4605058578349626       0.75257500544113431     
   1.2453510333028113       -2.4560263671990596       0.75286027451164705     
   2.0398505630924446       -2.5429720739377557       0.75116238405542801     
   2.6063329869631393       -2.3357794215647929       0.75115988874629847     
  -3.1405576837478271       -1.5410306745030371       0.75000581248644549     
  -2.6242650203005824       -1.8337555845375240       0.75002432231978911     
  -1.7837226705228546       -1.7837216342823656       0.75047438845689929     
  -1.0127586363376719       -1.7625705087239432       0.75321226153240417     
 -0.24747192332647233       -1.7419986502283245       0.76185700808484291     
  0.50573576300004830       -1.7362051888779451       0.77306245461872680     
   1.2538372866179239       -1.7403480395449986       0.77488544725589314     
   1.9911801481703897       -1.7359178454498254       0.76595081319042391     
   2.7737780306059490       -1.7478533455160128       0.75529226339615751     
   3.2466669496578930       -1.4502343577261831       0.75454554994705603     
  -3.1641319492090103       -1.0149979557501481       0.75001679993403358     
  -2.4941265608720133       -1.0052636451254648       0.75033886283739082     
  -1.7625790480595163       -1.0127578198861151       0.75321219736559897     
 -0.99649783346210519      -0.99648818370523418       0.77090673749484817     
 -0.23269356519694756      -0.99123266938241061       0.82292755262664574     
  0.51403712086702702      -0.99378189243784665       0.88694968228677140     
   1.2491674564663067      -0.99078789130809253       0.89991297292505434     
   1.9726754064780647      -0.98610408468626687       0.84745519268273539     
   2.6543579989000725      -0.94669458258397976       0.79348032986927319     
   3.2661417903798746      -0.91670942210952022       0.76389054279352786     
  -3.1971304142795023      -0.26220867150159083       0.75004801250352238     
  -2.4722403513871862      -0.25106701684589494       0.75127849375385181     
  -1.7420568623936092      -0.24747315441161308       0.76185522589357291     
 -0.99130419367961142      -0.23268868906033283       0.82291723815286133     
 -0.17000930727562827      -0.16995566435579315        1.0398755601171144     
  0.51978830076293048      -0.33074014920902717        1.1640602129995727     
   1.2492013705557374      -0.13507408724270095        1.3242012729551256     
   1.9640533731050092      -0.32298167240041920        1.0447099227500654     
   2.6086549678487398      -0.15299797415013761       0.91048032781887200     
   3.3152046412194776      -0.17850031660489121       0.78912271603385620     
  -3.1774190817264421       0.52930739698289597       0.75010575911263311     
  -2.4606610502152901       0.50607567790646646       0.75257352417588919     
  -1.7365090975218593       0.50572533363497751       0.77304440505018313     
 -0.99418378867114887       0.51402562766177995       0.88683529279263917     
 -0.33106608291560191       0.51978324556631805        1.1638743480134901     
  0.50366068030170763       0.50369940731393315        1.6290239401137372     
   1.2536579831612300       0.45643207468420172        1.6881312048907180     
   2.0128986922232546       0.51359973587872254        1.3485785630918796     
   2.8093614680801164       0.50320164611736773       0.94507553725206961     
   3.3476165734545029       0.50320267546406394       0.81394514525688966     
  -3.1075271189957943        1.2633244067925182       0.75017767306426197     
  -2.4565477886837854        1.2453324475472507       0.75285492675868104     
  -1.7415515218542972        1.2537944704485959       0.77480928741312405     
 -0.99258286490553094        1.2491038616082761       0.89936115554171092     
 -0.13657884087557143        1.2491494116185693        1.3232397157856339     
  0.45603938370952751        1.2536493374138182        1.6879439253510120     
   1.2595673345419158        1.2596700171145974        1.7940695290569355     
   2.0959207205385244        1.3417111238965558        1.3328215005002617     
   2.8078028832536628        1.2426141272079605       0.96421068232943474     
   3.3683470070175048       0.97646967525049144       0.81895830406536541     
  -3.0571591376031484        1.7684554823257741       0.75019280351449780     
  -2.5440582290790075        2.0398118172307189       0.75115621346847161     
  -1.7395129365015416        1.9910519211968658       0.76580656996364149     
 -0.99238962303729961        1.9724513054685133       0.84622090149443219     
 -0.32950212333900603        1.9638210409131449        1.0421588476297736     
  0.51110594471669868        2.0128138811032716        1.3479716864435649     
   1.3401478532040372        2.0959911110330012        1.3330863085704834     
   1.9284910425582331        1.9291881997683173        1.2216520478057635     
   2.6285927290584725        2.0508829666498145       0.92350712845231508     
  -2.3374135768312554        2.6062746860845905       0.75115501992050859     
  -1.7549578430157222        2.7735245788788361       0.75519971059989455     
 -0.96479506861320319        2.6537124463515700       0.79196534532166973     
 -0.17369081280067064        2.6079179120215095       0.90684841202845601     
  0.48510136225543865        2.8087235339960670       0.94369855485778520     
   1.2363791996851896        2.8076402815476618       0.96461332245185916     
   2.0498067455544473        2.6287413420823742       0.92365216879249390     
   2.5054348821769938        2.5056576804036412       0.86667670754882153     
  -1.4614438903006077        3.2462670153411448       0.75441898202895707     
 -0.95740411594026309        3.2646902790086587       0.76284935092765616     
 -0.24461328632050711        3.3128471566387021       0.78626165169640405     
  0.46259225510442431        3.3461722402277587       0.81293559048491837     
  0.96542296725987253        3.3679603451057472       0.81899328433620477     
  0.18196016282472274       0.18199536079054132        1.3236503311661361     
  0.51308134511065329       0.14323628507203506        1.4396685117683301     
  0.14309094795681568       0.51309033347211708        1.4395835272113087     
  0.83657083649648378       0.17501980471522893        1.5363878403774081     
  0.86722052609029388       0.47745804057226848        1.7223941687702760     
   1.6661078535790201       0.17870410970874626        1.3931138964205685     
   1.9848806621731001       0.14882861749097034        1.2302111187258293     
   1.6430446186608554       0.48492567029074113        1.5538410754486729     
   2.3096616027673202       0.18662503055882920        1.0931362171463537     
   2.3771864757490255       0.51786391825715905        1.1378089115102974     
  0.17476723185277623       0.83656556225151235        1.5362179678734331     
  0.47730342912861373       0.86722902722287565        1.7223229959330704     
  0.86657008482072040       0.86661808370028559        1.8518053061377726     
   1.2560315016319470       0.86928613617410433        1.8240221791115787     
  0.86911819847948357        1.2560506350533576        1.8239898296304562     
   1.6517734277152178       0.88604178336697970        1.6549406479159223     
   2.0627584614422911       0.89239869803856509        1.3877581646550330     
   1.6453714743203376        1.2920835968569508        1.6240859169829649     
   2.3808216124960011       0.85059657477398665        1.1781747114730630     
  0.17714756318522157        1.6660530164749725        1.3922885793097115     
  0.48397397906314965        1.6430147685994394        1.5534968355193097     
  0.14453016715849346        1.9847281226849578        1.2284804769643565     
  0.88544999009917924        1.6517762564146374        1.6548685745869554     
   1.2916607561657705        1.6454684807296915        1.6241406599504120     
  0.89046994598679730        2.0627132933170471        1.3876332391386543     
   1.6021462655361387        1.6024112835660631        1.5370090726177001     
  0.17888733242454183        2.3093866968693666        1.0910260351199785     
  0.51115654313378089        2.3769533547331205        1.1368000169101968     
  0.84636441294673781        2.3806872378250015        1.1779481356432882     
  -2.3285924036888175       -3.2523310743961380       0.75000031489668673     
  -1.8335441519349611       -3.5550127767569419       0.75000050100783411     
  -1.1675853264528164       -3.8257998517240903       0.75000039761281312     
 -0.30678624909143515       -3.9882179225022809       0.75000199089710629     
  0.60822889882053965       -3.9534867657094228       0.75000501653890128     
   1.4286652761426821       -3.7361632095967319       0.75000402289253321     
   2.0490569130437470       -3.4353115967998638       0.75003531165551285     
   2.5189079936378249       -3.1072660844522906       0.75005840533146129     
   2.9669844321257965       -2.6827231276304242       0.75015064264485942     
   3.3475599716134004       -2.1894844681914716       0.75040999896022054     
   3.6099615989658647       -1.7228398805436962       0.75087263194043730     
   3.8485258153491801       -1.0903435461316440       0.75219701455801236     
   4.0000000000000000       -9.7971743931788257E-016  0.75758019037397117     
   3.9613791504720064       0.55450448709247147       0.76290466692958026     
   3.8008966054444047        1.2462684280367542       0.77138602704562031     
   3.6016174775355054        1.7402159479532366       0.77831509670079180     
   3.2349442658029699        2.3526868888886350       0.78722489403965656     
   2.8284270241527447        2.8284272253396319       0.79038648609369055     
   2.3526868888886363        3.2349442658029690       0.78722489403965656     
   1.7402159479532362        3.6016174775355059       0.77831509670079180     
   1.2462684280367511        3.8008966054444056       0.77138602704562020     
  0.55450448709247213        3.9613791504720064       0.76290466692958026     
 -0.28498846185818261        3.9898347806153209       0.75570427096849346     
  -1.0903435461316446        3.8485258153491797       0.75219701455801236     
  -1.7228407450622267        3.6099611863776917       0.75087263097914747     
  -2.1894844681914716        3.3475599716133999       0.75040999896022054     
  -2.6827231276304246        2.9669844321257961       0.75015064264485942     
  -3.1072660844522919        2.5189079936378231       0.75005840533146129     
  -3.4353115967998633        2.0490569130437484       0.75003531165551285     
  -3.7361632095967336        1.4286652761426784       0.75000402289253321     
  -3.9534867657094233       0.60822889882053732       0.75000501653890128     
  -3.9882179225022805      -0.30678624909143570       0.75000199089710629     
  -3.8257998517240894       -1.1675853264528189       0.75000039761281312     
  -3.5550127767569402       -1.8335441519349649       0.75000050100783411     
  -3.2523310743961376       -2.3285924036888175       0.75000031489668673     
  -2.8284278508260008       -2.8284263986661928       0.75000038153075099     
  -1.5410307188836347       -3.1405573389079020        1.5000038749990907     
  -1.0149979157876499       -3.1641296993744699        1.5000112001103636     
 -0.26220822911191838       -3.1971175466918171        1.5000320105484339     
  0.52930927896634261       -3.1773661603181202        1.5000705278505921     
   1.2633294698241344       -3.1073851528563288        1.5001185613033838     
   1.7684622590394208       -3.0569691813025841        1.5001286988808609     
  -2.4371055220931384       -2.4371050623621020        1.5000058992093384     
  -1.8337558354218408       -2.6242642447403508        1.5000162149278058     
  -1.0052636060831297       -2.4941212707580385        1.5002259141803984     
 -0.25106592473881784       -2.4722072056171971        1.5008524428215348     
  0.50608116932795488       -2.4605058578349626        1.5017166702940896     
   1.2453510333028113       -2.4560263671990596        1.5019068496744314     
   2.0398505630924446       -2.5429720739377557        1.5007749227036187     
   2.6063329869631393       -2.3357794215647929        1.5007732591641989     
  -3.1405576837478271       -1.5410306745030371        1.5000038749909637     
  -2.6242650203005824       -1.8337555845375240        1.5000162148798595     
  -1.7837226705228546       -1.7837216342823656        1.5003162589712662     
  -1.0127586363376719       -1.7625705087239432        1.5021415076882694     
 -0.24747192332647233       -1.7419986502283245        1.5079046720565619     
  0.50573576300004830       -1.7362051888779451        1.5153749697458179     
   1.2538372866179239       -1.7403480395449986        1.5165902981705954     
   1.9911801481703897       -1.7359178454498254        1.5106338754602826     
   2.7737780306059490       -1.7478533455160128        1.5035281755974383     
   3.2466669496578930       -1.4502343577261831        1.5030303666313707     
  -3.1641319492090103       -1.0149979557501481        1.5000111999560224     
  -2.4941265608720133       -1.0052636451254648        1.5002259085582605     
  -1.7625790480595163       -1.0127578198861151        1.5021414649103992     
 -0.99649783346210519      -0.99648818370523418        1.5139378249965654     
 -0.23269356519694756      -0.99123266938241061        1.5486183684177639     
  0.51403712086702702      -0.99378189243784665        1.5912997881911810     
   1.2491674564663067      -0.99078789130809253        1.5999419819500362     
   1.9726754064780647      -0.98610408468626687        1.5649701284551569     
   2.6543579989000725      -0.94669458258397976        1.5289868865795155     
   3.2661417903798746      -0.91670942210952022        1.5092603618623519     
  -3.1971304142795023      -0.26220867150159083        1.5000320083356815     
  -2.4722403513871862      -0.25106701684589494        1.5008523291692346     
  -1.7420568623936092      -0.24747315441161308        1.5079034839290486     
 -0.99130419367961142      -0.23268868906033283        1.5486114921019074     
 -0.17000930727562827      -0.16995566435579315        1.6932503734114097     
  0.51978830076293048      -0.33074014920902717        1.7760401419997152     
   1.2492013705557374      -0.13507408724270095        1.8828008486367502     
   1.9640533731050092      -0.32298167240041920        1.6964732818333770     
   2.6086549678487398      -0.15299797415013761        1.6069868852125813     
   3.3152046412194776      -0.17850031660489121        1.5260818106892375     
  -3.1774190817264421       0.52930739698289597        1.5000705060750887     
  -2.4606610502152901       0.50607567790646646        1.5017156827839262     
  -1.7365090975218593       0.50572533363497751        1.5153629367001220     
 -0.99418378867114887       0.51402562766177995        1.5912235285284262     
 -0.33106608291560191       0.51978324556631805        1.7759162320089934     
  0.50366068030170763       0.50369940731393315        2.0860159600758248     
   1.2536579831612300       0.45643207468420172        2.1254208032604787     
   2.0128986922232546       0.51359973587872254        1.8990523753945863     
   2.8093614680801164       0.50320164611736773        1.6300503581680466     
   3.3476165734545029       0.50320267546406394        1.5426300968379265     
  -3.1075271189957943        1.2633244067925182        1.5001184487095081     
  -2.4565477886837854        1.2453324475472507        1.5019032845057874     
  -1.7415515218542972        1.2537944704485959        1.5165395249420828     
 -0.99258286490553094        1.2491038616082761        1.5995741036944739     
 -0.13657884087557143        1.2491494116185693        1.8821598105237558     
  0.45603938370952751        1.2536493374138182        2.1252959502340079     
   1.2595673345419158        1.2596700171145974        2.1960463527046237     
   2.0959207205385244        1.3417111238965558        1.8885476670001746     
   2.8078028832536628        1.2426141272079605        1.6428071215529565     
   3.3683470070175048       0.97646967525049144        1.5459722027102436     
  -3.0571591376031484        1.7684554823257741        1.5001285356763319     
  -2.5440582290790075        2.0398118172307189        1.5007708089789811     
  -1.7395129365015416        1.9910519211968658        1.5105377133090943     
 -0.99238962303729961        1.9724513054685133        1.5641472676629549     
 -0.32950212333900603        1.9638210409131449        1.6947725650865157     
  0.51110594471669868        2.0128138811032716        1.8986477909623765     
   1.3401478532040372        2.0959911110330012        1.8887242057136555     
   1.9284910425582331        1.9291881997683173        1.8144346985371755     
   2.6285927290584725        2.0508829666498145        1.6156714189682100     
  -2.3374135768312554        2.6062746860845905        1.5007700132803390     
  -1.7549578430157222        2.7735245788788361        1.5034664737332630     
 -0.96479506861320319        2.6537124463515700        1.5279768968811132     