 VARIABLES = "X", "Y", "Z"
 ZONE F=FEPOINT, ET=BRICK, N=         800 E=         564
  -1.5410307660869162       -3.1405573743116655        6.3296662507269908E-016
  -1.0149982359356888       -3.1641298770135942        1.7183475887411431E-014
 -0.26220990562399316       -3.1971182213112677        4.5979405777271937E-013
  0.52930311661668206       -3.1773680608732486        4.6114715577254635E-012
   1.2633146991141990       -3.1073889212610579        1.3825554458966192E-011
   1.7684445049007123       -3.0569732799750762        1.1730326498015848E-011
  -2.4371055485307975       -2.4371050887995360        6.0845190288707966E-016
  -1.8337560090278318       -2.6242644024046871        2.4435650136961521E-014
  -1.0052649186531748       -2.4941222621878985        4.0105743696791043E-011
 -0.25107352609241917       -2.4722114700122235        2.0068669101672851E-009
  0.50604840625881142       -2.4605191652723737        1.6443978141887460E-008
   1.2452541391135323       -2.4560565854944287        2.2692077907503169E-008
   2.0396802799875444       -2.5430160446245664        1.9697059732659959E-009
   2.6061311887763385       -2.3358247749179939        1.7641243676095921E-009
  -3.1405577191521892       -1.5410307217063621        6.3296412791095460E-016
  -2.6242651779685686       -1.8337557581432822        2.4435496199939353E-014
  -1.7837234019622281       -1.7837223657106835        1.2019878838416091E-010
  -1.0127626865079284       -1.7625742682016390        3.6751741627555816E-008
 -0.24749697316597985       -1.7420185059927760        1.8378646624582992E-006
  0.50561538932986161       -1.7362751654562882        1.3784555234925252E-005
   1.2534075198809347       -1.7405245775292211        1.7443030477754169E-005
   1.9901688825524932       -1.7362334428503734        4.5716027814036140E-006
   2.7724512856271253       -1.7481897246798217        1.6199013866139706E-007
   3.2453299760462850       -1.4505106184455638        9.5484836653710963E-008
  -3.1641321268489015       -1.0149982758984692        1.7182988787422579E-014
  -2.4941275523355819       -1.0052649576986501        4.0103510342304662E-011
  -1.7625828077063990       -1.0127618700536283        3.6749321855956797E-008
 -0.99651069398488845      -0.99650104387376637        9.6106187983332471E-006
 -0.23275131249178652      -0.99128900972618983        4.0086074112957368E-004
  0.51371014423417383      -0.99406906486875846        2.7021195894412296E-003
   1.2478872323351629      -0.99156092339597601        3.5664685329999685E-003
   1.9687956004566591      -0.98767600616419904        9.7930627138689895E-004
   2.6475863824434382      -0.94874000610743026        8.5865568609499456E-005
   3.2604727880823776      -0.91801207049858791        2.8241695978218644E-006
  -3.1971310888729167      -0.26221034801414433        4.5971879773813934E-013
  -2.4722446158343323      -0.25107461821654425        2.0061658964608323E-009
  -1.7420767196552653      -0.24749820442772713        1.8369763029461190E-006
 -0.99136053929265955      -0.23274643660712388        4.0069670898470322E-004
 -0.17014844475832114      -0.17009479506642450        2.4671940081446311E-002
  0.51933163893833967      -0.33124327065882558        7.4317340438351753E-002
   1.2460639345860824      -0.13843680648269102       0.19604449596649920     
   1.9555010803174684      -0.32768742847185056        2.7102231123445973E-002
   2.5817341003048342      -0.16388983703383400        4.6109638436264257E-003
   3.2934664670812461      -0.18269270818566466        6.8913352158232516E-005
  -3.1774209820624559       0.52930123463558698        4.6084019134914716E-012
  -2.4606743567310811       0.50604291480354291        1.6417371910241917E-008
  -1.7365790766718485       0.50560495926420590        1.3749994406314389E-005
 -0.99447101241886804       0.51369864393096609        2.6955841783833957E-003
 -0.33156930580967398       0.51932656942776201        7.4220080670432634E-002
  0.50289097365877267       0.50292973268397845       0.71474514243867759     
   1.2499211193282733       0.44871686802227939       0.86580516524680351     
   1.9847932930397698       0.48260851346242084       0.23438210631767742     
   2.7208430056594004       0.46356383970513515        1.1468725176345184E-002
   3.2786498116985485       0.50084648422842937        4.2789458609721162E-004
  -3.1075308865844975        1.2633096360972658        1.3801445057267676E-011
  -2.4565780003135518        1.2452355533837249        2.2570032295042215E-008
  -1.7417280374401385        1.2533647023527306        1.7271818944349981E-005
 -0.99335597630675188        1.2478236194393899        3.5285728420004787E-003
 -0.13994298662037991        1.2460117636941648       0.19504546518045163     
  0.44832046438547152        1.2499114504193669       0.86524380481053687     
   1.2491679205882424        1.2492754409250899        1.2449940626633067     
   2.0573626058263734        1.1921872026133002       0.26528188709482009     
   2.5545598368012690        1.0244499691014939        3.9938439507812375E-002
   3.1812358428288277        1.1040805245640828        1.1738471894646857E-003
  -3.0571632351397269        1.7684377282100101        1.1703420341684147E-011
  -2.5441021806158832        2.0396415343812970        1.9473291461265906E-009
  -1.7398283933792040        1.9900406550391299        4.4402713097494214E-006
 -0.99396116388132738        1.9685714645401933        9.4384122542121290E-004
 -0.33420900505844059        1.9552685592470296        2.6423211646552369E-002
  0.48007110719939433        1.9847038423151615       0.23352025560781192     
   1.1903128020840039        2.0573323753267543       0.26559280171637362     
   2.0284608329333973        2.0288243492906797        6.2733998859111031E-002
   2.8051309668746400        2.1354734176163404        1.6348055254006393E-003
  -2.3374589039175362        2.6060728883519322        1.7359900037242776E-009
  -1.7552939145995219        2.7721978367031603        1.5296916309617239E-007
 -0.96683844306503763        2.6469408091809665        7.7453242443447512E-005
 -0.18457870706619367        2.5809962486232196        4.3018992446909399E-003
  0.44543912533421276        2.7201975997710099        1.1170697644773877E-002
   1.0170098332238486        2.5543064379558635        4.0004167286277120E-002
   2.1349689028656340        2.8051379288874738        1.6375551345588174E-003
   2.5189099751619213        2.5190096761661263        1.4792031397539353E-003
  -1.4617197800886725        3.2449300475910876        8.8152489816484116E-008
 -0.95870389794042521        3.2590213004132917        2.2511211314956477E-006
 -0.24878283354056041        3.2911091614708132        5.5037569474372154E-005
  0.46041709562795174        3.2772083941694885        4.0574869670384039E-004
   1.0948748989852943        3.1809105791684176        1.1795842972127317E-003
  0.18179058293562841       0.18182578688822140       0.20132224783516453     
  0.51266677077082135       0.14268679454018812       0.34880079603415248     
  0.14254138086551160       0.51267574588450882       0.34867493465122545     
  0.83577935474086440       0.17371412817545856       0.51731151865158265     
  0.86574628855751845       0.47487839713786423       0.96541228828895764     
   1.6592085367624942       0.17099334537603311       0.27880385183732126     
   1.9693649788612764       0.13634077971345915       0.11968422553510480     
   1.6317558540124830       0.46720770633605091       0.53847752326033604     
   2.2817477552120824       0.16918626372614548        4.5309975979021019E-002
   2.3172116364888291       0.46952429984304628        7.2860302360301263E-002
  0.17346129506675798       0.83577401564232945       0.51698599235674880     
  0.47472322814176443       0.86575460794800985       0.96517952333311974     
  0.86267163060889851       0.86272008627521590        1.4175185238133483     
   1.2509651587701529       0.85589805140003639        1.3229204890509283     
  0.85572271770605157        1.2509812854636084        1.3228040956914797     
   1.6378774714705064       0.84862240682566825       0.78722658802270318     
   2.0135441377757530       0.82079233676485364       0.30616976277147046     
   1.6462992159475043        1.2366212091073785       0.73706934405467250     
   2.2934705914881688       0.76285086878695896       0.11208545426401448     
  0.16943210469446732        1.6591531801769275       0.27775278948395854     
  0.46624009208655520        1.6317233390334867       0.53767772823448734     
  0.13203062072929936        1.9692114190522911       0.11840464579705595     
  0.84798957962638644        1.6378679329485950       0.78701427394331480     
   1.2361296137011206        1.6463540164230228       0.73724799164209187     
  0.81871398905871351        2.0134769598674400       0.30588834146027927     
   1.6390089519030295        1.6393207044870133       0.44037440317422838     
   2.0619471592659337        1.6099931940127776       0.15814070716020043     
   1.6088578977353505        2.0620507230839871       0.15841701159287463     
   2.5180213578400590        1.5966016045459039        2.7736158167753322E-002
   2.4164744042838837        2.0329466565910121        1.4926715395698899E-002
  0.16143182959656516        2.2814712820184155        4.4485911899178027E-002
  0.46270245355051365        2.3169692145393390        7.2137609566537281E-002
  0.75838453752307466        2.2933142272306544       0.11179432554176985     
   1.5942773055567336        2.5179810535941556        2.7856668875398866E-002
   2.0323464460392824        2.4165492852236055        1.4949738288748479E-002
   2.3235009677897387        2.3236399156474676        7.8279779290090362E-003
  -2.3285924036888175       -3.2523310743961380        1.5095497699040388E-019
  -1.8335441519349611       -3.5550127767569419        2.6883055522677990E-019
  -1.1675853264528164       -3.8257998517240903        8.7971371128151371E-019
 -0.30678624909143515       -3.9882179225022809        7.1490842188266841E-018
  0.60822889882053965       -3.9534867657094228        1.2349778014034012E-016
   1.4286652761426821       -3.7361632095967319        2.7780457216018300E-015
   2.0490569130437470       -3.4353115967998638        4.4056700486731437E-014
   2.5189079936378249       -3.1072660844522906        4.8258990285139841E-013
   2.9669844321257965       -2.6827231276304242        6.6145392148576713E-012
   3.3475599716134004       -2.1894844681914716        9.0986644708610904E-011
   3.6099615989658647       -1.7228398805436962        8.1066214711959088E-010
   3.8485258153491801       -1.0903435461316440        1.1059366906260157E-008
   4.0000000000000000       -9.7971743931788257E-016   4.5885348075273709E-007
   3.9613791504720064       0.55450448709247158        2.1568020209872986E-006
   3.8008966054444047        1.2462684280367542        1.0617151574517667E-005
   3.6016174775355054        1.7402159479532366        2.5699613234293863E-005
   3.2349442658029699        2.3526868888886350        5.3724499694643020E-005
   2.8284270241527447        2.8284272253396319        6.6124439551414424E-005
   2.3526868888886363        3.2349442658029690        5.3724499694643122E-005
   1.7402159479532362        3.6016174775355059        2.5699613234293775E-005
   1.2462684280367511        3.8008966054444056        1.0617151574517630E-005
  0.55450448709247213        3.9613791504720064        2.1568020209872986E-006
 -0.28498846185818261        3.9898347806153209        1.8928804477838974E-007
  -1.0903435461316446        3.8485258153491797        1.1059366906260119E-008
  -1.7228407450622267        3.6099611863776917        8.1065904121935318E-010
  -2.1894844681914716        3.3475599716133999        9.0986644708610904E-011
  -2.6827231276304246        2.9669844321257961        6.6145392148576713E-012
  -3.1072660844522919        2.5189079936378231        4.8258990285139498E-013
  -3.4353115967998633        2.0490569130437484        4.4056700486731121E-014
  -3.7361632095967332        1.4286652761426784        2.7780457216018107E-015
  -3.9534867657094233       0.60822889882053732        1.2349778014033923E-016
  -3.9882179225022805      -0.30678624909143570        7.1490842188268366E-018
  -3.8257998517240894       -1.1675853264528189        8.7971371128150755E-019
  -3.5550127767569402       -1.8335441519349649        2.6883055522677797E-019
  -3.2523310743961376       -2.3285924036888175        1.5095497699040600E-019
  -2.8284278508260008       -2.8284263986661928        1.2020388136939847E-019
   3.0206652379273251        1.6539305482723869        1.7283213827781153E-003
   1.6517032124731221        3.0205952206544406        1.7366139347546154E-003
  -1.5410307660869162       -3.1405573743116655       0.75000000000000044     
  -1.0149982359356888       -3.1641298770135942       0.75000000000001288     
 -0.26220990562399316       -3.1971182213112677       0.75000000000034484     
  0.52930311661668206       -3.1773680608732486       0.75000000000345857     
   1.2633146991141990       -3.1073889212610579       0.75000000001036915     
   1.7684445049007123       -3.0569732799750762       0.75000000000879774     
  -2.4371055485307975       -2.4371050887995360       0.75000000000000044     
  -1.8337560090278318       -2.6242644024046871       0.75000000000001832     
  -1.0052649186531748       -2.4941222621878985       0.75000000003007927     
 -0.25107352609241917       -2.4722114700122235       0.75000000150515023     
  0.50604840625881142       -2.4605191652723737       0.75000001233298363     
   1.2452541391135323       -2.4560565854944287       0.75000001701905838     
   2.0396802799875444       -2.5430160446245664       0.75000000147727952     
   2.6061311887763385       -2.3358247749179939       0.75000000132309330     
  -3.1405577191521892       -1.5410307217063621       0.75000000000000044     
  -2.6242651779685686       -1.8337557581432822       0.75000000000001832     
  -1.7837234019622281       -1.7837223657106835       0.75000000009014911     
  -1.0127626865079284       -1.7625742682016390       0.75000002756380624     
 -0.24749697316597985       -1.7420185059927760       0.75000137839849690     
  0.50561538932986161       -1.7362751654562882       0.75001033841642617     
   1.2534075198809347       -1.7405245775292211       0.75001308227285834     
   1.9901688825524932       -1.7362334428503734       0.75000342870208603     
   2.7724512856271253       -1.7481897246798217       0.75000012149260398     
   3.2453299760462850       -1.4505106184455638       0.75000007161362747     
  -3.1641321268489015       -1.0149982758984692       0.75000000000001288     
  -2.4941275523355819       -1.0052649576986501       0.75000000003007761     
  -1.7625828077063990       -1.0127618700536283       0.75000002756199136     
 -0.99651069398488845      -0.99650104387376637       0.75000720796409870     
 -0.23275131249178652      -0.99128900972618983       0.75030064555584719     
  0.51371014423417383      -0.99406906486875846       0.75202658969208092     
   1.2478872323351629      -0.99156092339597601       0.75267485139974999     
   1.9687956004566591      -0.98767600616419904       0.75073447970354013     
   2.6475863824434382      -0.94874000610743026       0.75006439917645717     
   3.2604727880823776      -0.91801207049858791       0.75000211812719841     
  -3.1971310888729167      -0.26221034801414433       0.75000000000034484     
  -2.4722446158343323      -0.25107461821654425       0.75000000150462443     
  -1.7420767196552653      -0.24749820442772713       0.75000137773222719     
 -0.99136053929265955      -0.23274643660712388       0.75030052253173851     
 -0.17014844475832114      -0.17009479506642450       0.76850395506108471     
  0.51933163893833967      -0.33124327065882558       0.80573800532876383     
   1.2460639345860824      -0.13843680648269102       0.89703337197487443     
   1.9555010803174684      -0.32768742847185056       0.77032667334258442     
   2.5817341003048342      -0.16388983703383400       0.75345822288271980     
   3.2934664670812461      -0.18269270818566466       0.75005168501411867     
  -3.1774209820624559       0.52930123463558698       0.75000000000345635     
  -2.4606743567310811       0.50604291480354291       0.75000001231302893     
  -1.7365790766718485       0.50560495926420590       0.75001031249580474     
 -0.99447101241886804       0.51369864393096609       0.75202168813378756     
 -0.33156930580967398       0.51932656942776201       0.80566506050282449     
  0.50289097365877267       0.50292973268397845        1.2860588568290083     
   1.2499211193282733       0.44871686802227939        1.3993538739351026     
   1.9847932930397698       0.48260851346242084       0.92578657973825806     
   2.7208430056594004       0.46356383970513515       0.75860154388225887     
   3.2786498116985485       0.50084648422842937       0.75032092093957292     
  -3.1075308865844975        1.2633096360972658       0.75000000001035105     
  -2.4565780003135518        1.2452355533837249       0.75000001692752427     
  -1.7417280374401385        1.2533647023527306       0.75001295386420830     
 -0.99335597630675188        1.2478236194393899       0.75264642963150041     
 -0.13994298662037991        1.2460117636941648       0.89628409888533866     
  0.44832046438547152        1.2499114504193669        1.3989328536079026     
   1.2491679205882424        1.2492754409250899        1.6837455469974800     
   2.0573626058263734        1.1921872026133002       0.94896141532111500     
   2.5545598368012690        1.0244499691014939       0.77995382963085924     
   3.1812358428288277        1.1040805245640828       0.75088038539209856     
  -3.0571632351397269        1.7684377282100101       0.75000000000877753     
  -2.5441021806158832        2.0396415343812970       0.75000000146049683     
  -1.7398283933792040        1.9900406550391299       0.75000333020348231     
 -0.99396116388132738        1.9685714645401933       0.75070788091906593     
 -0.33420900505844059        1.9552685592470296       0.76981740873491433     
  0.48007110719939433        1.9847038423151615       0.92514019170585893     
   1.1903128020840039        2.0573323753267543       0.94919460128728028     
   2.0284608329333973        2.0288243492906797       0.79705049914433324     
   2.8051309668746400        2.1354734176163404       0.75122610414405044     
  -2.3374589039175362        2.6060728883519322       0.75000000130199251     
  -1.7552939145995219        2.7721978367031603       0.75000011472687234     
 -0.96683844306503763        2.6469408091809665       0.75005808993183254     
 -0.18457870706619367        2.5809962486232196       0.75322642443351817     
  0.44543912533421276        2.7201975997710099       0.75837802323358039     
   1.0170098332238486        2.5543064379558635       0.78000312546470785     
   2.1349689028656340        2.8051379288874738       0.75122816635091916     
   2.5189099751619213        2.5190096761661263       0.75110940235481549     
  -1.4617197800886725        3.2449300475910876       0.75000006611436731     
 -0.95870389794042521        3.2590213004132917       0.75000168834084857     
 -0.24878283354056041        3.2911091614708132       0.75004127817710575     
  0.46041709562795174        3.2772083941694885       0.75030431152252786     
   1.0948748989852943        3.1809105791684176       0.75088468822290955     
  0.18179058293562841       0.18182578688822140       0.90099168587637335     
  0.51266677077082135       0.14268679454018812        1.0116005970256143     
  0.14254138086551160       0.51267574588450882        1.0115062009884190     
  0.83577935474086440       0.17371412817545856        1.1379836389886870     
  0.86574628855751845       0.47487839713786423        1.4740592162167183     
   1.6592085367624942       0.17099334537603311       0.95910288887799089     
   1.9693649788612764       0.13634077971345915       0.83976316915132854     
   1.6317558540124830       0.46720770633605091        1.1538581424452521     
   2.2817477552120824       0.16918626372614548       0.78398248198426579     
   2.3172116364888291       0.46952429984304628       0.80464522677022599     
  0.17346129506675798       0.83577401564232945        1.1377394942675616     
  0.47472322814176443       0.86575460794800985        1.4738846424998397     
  0.86267163060889851       0.86272008627521590        1.8131388928600112     
   1.2509651587701529       0.85589805140003639        1.7421903667881962     
  0.85572271770605157        1.2509812854636084        1.7421030717686099     
   1.6378774714705064       0.84862240682566825        1.3404199410170274     
   2.0135441377757530       0.82079233676485364       0.97962732207860281     
   1.6462992159475043        1.2366212091073785        1.3028020080410043     
   2.2934705914881688       0.76285086878695896       0.83406409069801080     
  0.16943210469446732        1.6591531801769275       0.95831459211296888     
  0.46624009208655520        1.6317233390334867        1.1532582961758655     
  0.13203062072929936        1.9692114190522911       0.83880348434779195     
  0.84798957962638644        1.6378679329485950        1.3402607054574860     
   1.2361296137011206        1.6463540164230228        1.3029359937315688     
  0.81871398905871351        2.0134769598674400       0.97941625609520944     
   1.6390089519030295        1.6393207044870133        1.0802808023806714     
   2.0619471592659337        1.6099931940127776       0.86860553037015031     
   1.6088578977353505        2.0620507230839871       0.86881275869465602     
   2.5180213578400590        1.5966016045459039       0.77080211862581494     
   2.4164744042838837        2.0329466565910121       0.76119503654677423     
  0.16143182959656516        2.2814712820184155       0.78336443392438349     
  0.46270245355051365        2.3169692145393390       0.80410320717490291     
  0.75838453752307466        2.2933142272306544       0.83384574415632740     
   1.5942773055567336        2.5179810535941556       0.77089250165654910     
   2.0323464460392824        2.4165492852236055       0.76121230371656134     
   2.3235009677897387        2.3236399156474676       0.75587098344675674     
  -2.3285924036888175       -3.2523310743961380       0.75000000000000000     
  -1.8335441519349611       -3.5550127767569419       0.75000000000000000     
  -1.1675853264528164       -3.8257998517240903       0.75000000000000000     
 -0.30678624909143515       -3.9882179225022809       0.75000000000000000     
  0.60822889882053965       -3.9534867657094228       0.75000000000000011     
   1.4286652761426821       -3.7361632095967319       0.75000000000000211     
   2.0490569130437470       -3.4353115967998638       0.75000000000003308     
   2.5189079936378249       -3.1072660844522906       0.75000000000036193     
   2.9669844321257965       -2.6827231276304242       0.75000000000496092     
   3.3475599716134004       -2.1894844681914716       0.75000000006823997     
   3.6099615989658647       -1.7228398805436962       0.75000000060799665     
   3.8485258153491801       -1.0903435461316440       0.75000000829452518     
   4.0000000000000000       -9.7971743931788257E-016  0.75000034414011052     
   3.9613791504720064       0.55450448709247158       0.75000161760151574     
   3.8008966054444047        1.2462684280367542       0.75000796286368088     
   3.6016174775355054        1.7402159479532366       0.75001927470992569     
   3.2349442658029699        2.3526868888886350       0.75004029337477096     
   2.8284270241527447        2.8284272253396319       0.75004959332966359     
   2.3526868888886363        3.2349442658029690       0.75004029337477096     
   1.7402159479532362        3.6016174775355059       0.75001927470992569     
   1.2462684280367511        3.8008966054444056       0.75000796286368088     
  0.55450448709247213        3.9613791504720064       0.75000161760151574     
 -0.28498846185818261        3.9898347806153209       0.75000014196603360     
  -1.0903435461316446        3.8485258153491797       0.75000000829452518     
  -1.7228407450622267        3.6099611863776917       0.75000000060799432     
  -2.1894844681914716        3.3475599716133999       0.75000000006823997     
  -2.6827231276304246        2.9669844321257961       0.75000000000496092     
  -3.1072660844522919        2.5189079936378231       0.75000000000036193     
  -3.4353115967998633        2.0490569130437484       0.75000000000003308     
  -3.7361632095967332        1.4286652761426784       0.75000000000000211     
  -3.9534867657094233       0.60822889882053732       0.75000000000000011     
  -3.9882179225022805      -0.30678624909143570       0.75000000000000000     
  -3.8257998517240894       -1.1675853264528189       0.75000000000000000     
  -3.5550127767569402       -1.8335441519349649       0.75000000000000000     
  -3.2523310743961376       -2.3285924036888175       0.75000000000000000     
  -2.8284278508260008       -2.8284263986661928       0.75000000000000000     
   3.0206652379273251        1.6539305482723869       0.75129624103708359     
   1.6517032124731221        3.0205952206544406       0.75130246045106597     
  -1.5410307660869162       -3.1405573743116655        1.5000000000000002     
  -1.0149982359356888       -3.1641298770135942        1.5000000000000087     
 -0.26220990562399316       -3.1971182213112677        1.5000000000002298     
  0.52930311661668206       -3.1773680608732486        1.5000000000023057     
   1.2633146991141990       -3.1073889212610579        1.5000000000069127     
   1.7684445049007123       -3.0569732799750762        1.5000000000058651     
  -2.4371055485307975       -2.4371050887995360        1.5000000000000002     
  -1.8337560090278318       -2.6242644024046871        1.5000000000000122     
  -1.0052649186531748       -2.4941222621878985        1.5000000000200528     
 -0.25107352609241917       -2.4722114700122235        1.5000000010034336     
  0.50604840625881142       -2.4605191652723737        1.5000000082219891     
   1.2452541391135323       -2.4560565854944287        1.5000000113460390     
   2.0396802799875444       -2.5430160446245664        1.5000000009848531     
   2.6061311887763385       -2.3358247749179939        1.5000000008820622     
  -3.1405577191521892       -1.5410307217063621        1.5000000000000002     
  -2.6242651779685686       -1.8337557581432822        1.5000000000000122     
  -1.7837234019622281       -1.7837223657106835        1.5000000000600995     
  -1.0127626865079284       -1.7625742682016390        1.5000000183758708     
 -0.24749697316597985       -1.7420185059927760        1.5000009189323313     
  0.50561538932986161       -1.7362751654562882        1.5000068922776175     
   1.2534075198809347       -1.7405245775292211        1.5000087215152389     
   1.9901688825524932       -1.7362334428503734        1.5000022858013906     
   2.7724512856271253       -1.7481897246798217        1.5000000809950693     
   3.2453299760462850       -1.4505106184455638        1.5000000477424182     
  -3.1641321268489015       -1.0149982758984692        1.5000000000000087     
  -2.4941275523355819       -1.0052649576986501        1.5000000000200517     
  -1.7625828077063990       -1.0127618700536283        1.5000000183746609     
 -0.99651069398488845      -0.99650104387376637        1.5000048053093991     
 -0.23275131249178652      -0.99128900972618983        1.5002004303705647     
  0.51371014423417383      -0.99406906486875846        1.5013510597947206     
   1.2478872323351629      -0.99156092339597601        1.5017832342665001     
   1.9687956004566591      -0.98767600616419904        1.5004896531356935     
   2.6475863824434382      -0.94874000610743026        1.5000429327843048     
   3.2604727880823776      -0.91801207049858791        1.5000014120847989     
  -3.1971310888729167      -0.26221034801414433        1.5000000000002298     
  -2.4722446158343323      -0.25107461821654425        1.5000000010030830     
  -1.7420767196552653      -0.24749820442772713        1.5000009184881515     
 -0.99136053929265955      -0.23274643660712388        1.5002003483544923     
 -0.17014844475832114      -0.17009479506642450        1.5123359700407231     
  0.51933163893833967      -0.33124327065882558        1.5371586702191760     
   1.2460639345860824      -0.13843680648269102        1.5980222479832495     
   1.9555010803174684      -0.32768742847185056        1.5135511155617229     
   2.5817341003048342      -0.16388983703383400        1.5023054819218131     
   3.2934664670812461      -0.18269270818566466        1.5000344566760790     
  -3.1774209820624559       0.52930123463558698        1.5000000000023042     
  -2.4606743567310811       0.50604291480354291        1.5000000082086860     
  -1.7365790766718485       0.50560495926420590        1.5000068749972031     
 -0.99447101241886804       0.51369864393096609        1.5013477920891918     
 -0.33156930580967398       0.51932656942776201        1.5371100403352163     
  0.50289097365877267       0.50292973268397845        1.8573725712193387     
   1.2499211193282733       0.44871686802227939        1.9329025826234019     
   1.9847932930397698       0.48260851346242084        1.6171910531588387     
   2.7208430056594004       0.46356383970513515        1.5057343625881725     
   3.2786498116985485       0.50084648422842937        1.5002139472930487     
  -3.1075308865844975        1.2633096360972658        1.5000000000069007     
  -2.4565780003135518        1.2452355533837249        1.5000000112850163     
  -1.7417280374401385        1.2533647023527306        1.5000086359094722     
 -0.99335597630675188        1.2478236194393899        1.5017642864210003     