 VARIABLES = "X", "Y", "Z"
 ZONE F=FEPOINT, ET=BRICK, N=        1005 E=         728
  -1.5406182808574209       -3.1402126383103650        6.3768464405136892E-016
  -1.0141264845424329       -3.1635225330136416        1.7405799147757438E-014
 -0.26090396697592821       -3.1964264202017927        4.6611446260135706E-013
  0.53039307051511198       -3.1769384964605250        4.6434954709718295E-012
   1.2634768385170276       -3.1072110272182822        1.3854118100709706E-011
   1.7679202287958959       -3.0568259925887484        1.1765579839971115E-011
  -2.4367232756210537       -2.4367228297254684        6.1326721817666665E-016
  -1.8328147992841508       -2.6233902051008848        2.4867136309949278E-014
  -1.0026144599023894       -2.4919996250962493        4.1666487099503505E-011
 -0.24641491091453097       -2.4695552300693704        2.0994712096169395E-009
  0.51039168040877292       -2.4593203393723053        1.6756909313442418E-008
   1.2456010901198606       -2.4562097351926302        2.2650286512148399E-008
   2.0367853485440741       -2.5422528381282623        2.0037339256571057E-009
   2.6023436871849679       -2.3337706031524346        1.8338789265499201E-009
  -3.1402129384414006       -1.5406182366669767        6.3768248166263291E-016
  -2.6233908441216842       -1.8328145720567308        2.4867011596942963E-014
  -1.7813800648441334       -1.7813793518043435        1.2499415527421740E-010
  -1.0076738381541808       -1.7577111287463965        3.9454321302934991E-008
 -0.23481731673015416       -1.7323477822955418        2.0859582717100368E-006
  0.52179392734831720       -1.7331192728011366        1.4483971948170649E-005
   1.2542420353861174       -1.7469526012835042        1.6533593100931112E-005
   1.9760729012549987       -1.7331842604313283        4.8863905447245544E-006
   2.7640718992795450       -1.7405104757220762        1.8040601416193603E-007
   3.2427715448154473       -1.4462921290893107        1.0020086991878758E-007
  -3.1635245319754728       -1.0141265182237256        1.7405361019908294E-014
  -2.4920039115552997       -1.0026145053663182        4.1664604728973914E-011
  -1.7577169698345898       -1.0076734354892085        3.9452510434807170E-008
 -0.98912846459178450      -0.98912343603488562        1.0497210208413914E-005
 -0.22100793288861442      -0.97607537924357779        4.5823137911842190E-004
  0.58867846187403972      -0.93587241340290539        4.2124282969550298E-003
   1.2506685697778699       -1.0981541077870096        1.8507524742735005E-003
   1.8997375797941278      -0.92877243388861719        1.6798158356286794E-003
   2.6417835405741155      -0.93249720365232358        9.7122950980193149E-005
   3.2596350729058656      -0.91272137210948479        2.9279282793056579E-006
  -3.1964383183714880      -0.26090437738559097        4.6604392521844368E-013
  -2.4695835422680372      -0.24641587124651310        2.0988450636412639E-009
  -1.7323906355910610      -0.23481848956433277        2.0852165997325803E-006
 -0.97611369197053277      -0.22100651596929596        4.5812969121586064E-004
 -0.17010556098069263      -0.17009007733959505        2.4676063080650408E-002
  0.44468029512739837      -0.31736458689634817        6.9928706393115825E-002
   1.2510867265760668      -0.26506624042388760       0.12372541087507320     
   2.0368025700576524      -0.30834481934935776        2.2945728190605981E-002
   2.5943037598374010      -0.15361644618792206        4.5008546986288547E-003
   3.2954065807775401      -0.17847947628848795        6.9021482409364437E-005
  -3.1769889919870771       0.53039127327259961        4.6405464603792483E-012
  -2.4594606496581801       0.51038669379619173        1.6732403702130710E-008
  -1.7333611521744674       0.52178543080113404        1.4455097528044141E-005
 -0.93612232425067865       0.58867026420745394        4.2062759259994939E-003
 -0.31741088188612043       0.44467998919688279        6.9915877399042176E-002
  0.53074221720326920       0.53074522173118832       0.77480858877714653     
   1.2501198360760994       0.49472215902326055       0.93115145468231963     
   1.9918138566955617       0.48721569957309802       0.23119388545252725     
   2.7266222224530625       0.46645888657981416        1.1182888068533670E-002
   3.2807557549602078       0.50266546688710290        4.2292420925574671E-004
  -3.1073491361803773        1.2634719122126283        1.3830615667909401E-011
  -2.4567036493628147        1.2455834748363377        2.2534870310673568E-008
  -1.7480086613717210        1.2542043889875596        1.6390771360805108E-005
  -1.0993937188032834        1.2506243938878532        1.8364245962706840E-003
 -0.26554506305925818        1.2510696598312239       0.12350232304945388     
  0.49467838637613237        1.2501183119745476       0.93109073506587858     
   1.2513136895538859        1.2513317977908034        1.2410722744433729     
   2.0552307964451391        1.1875113905951433       0.26779226625641717     
   2.5553556900394270        1.0238584880247048        3.9792146237698431E-002
   3.1818344793810991        1.1041534169416634        1.1692306197848283E-003
  -3.0570123843091253        1.7679135789503253        1.1739099375510097E-011
  -2.5433118729399951        2.0367475672633448        1.9815396119486145E-009
  -1.7366081725888172        1.9759507612790472        4.7527309895192506E-006
 -0.93413874282461373        1.8995461633537620        1.6292282270284741E-003
 -0.31475144706707042        2.0365740570051254        2.2390453215088018E-002
  0.48471712247522525        1.9917253516789197       0.23036545012925086     
   1.1856475375179949        2.0551962418860263       0.26810111696940880     
   2.0215723245664790        2.0219336102971792        6.5449765523937095E-002
   2.8045558586951955        2.1346749508283409        1.6443690432544635E-003
  -2.3353853033042546        2.6022860794806779        1.8049939537589734E-009
  -1.7475367951286211        2.7638212265726341        1.7049318158392589E-007
 -0.95045536466465108        2.6411429668838124        8.7753883266882972E-005
 -0.17423033994876827        2.5935685716299886        4.2030222988770991E-003
  0.44834378228661026        2.7259771176611474        1.0894281267986649E-002
   1.0164211322690964        2.5551018629662763        3.9857205339041558E-002
   2.1341704845362486        2.8045627833175439        1.6471328284991711E-003
   2.5182700544156371        2.5183697296608449        1.4878535278213811E-003
  -1.4574837882714637        3.2423722405937552        9.2530765808268978E-008
 -0.95339030860373952        3.2581844014346375        2.3356259619746281E-006
 -0.24455351565199457        3.2930498470993914        5.5173848621394424E-005
  0.46224156087047280        3.2793145158908694        4.0113076213527858E-004
   1.0949486819485805        3.1815092017415867        1.1749480253343964E-003
  0.93155970544902500      -0.59893473286163668        3.2178735824578107E-002
   1.2504377685054400      -0.63021418021698250        2.5349128815103015E-002
  0.88572165008445536      -0.28784785324050932       0.12221758447880464     
   1.5679403543628161      -0.59686366297047677        2.0174626091926530E-002
   1.6134284576779303      -0.28461560837880095        7.1766858313975015E-002
  0.16869800292434720       0.16870169741567131       0.18867775686132526     
  0.48078178147991996       0.12686380375971226       0.31903117447855722     
  0.12685067262269495       0.48078265565472461       0.31902063564587735     
  0.90759465670431250       0.14024903407478109       0.48865400400817416     
   1.2513248723264248        6.2853606320405042E-002  0.36544253912535907     
  0.83687781229192004       0.45778721110529724       0.92733515872547578     
   1.0861430435649613       0.32035813577402433       0.74190400074365415     
   1.2506785376585343       0.30822262310413462       0.66589159328691572     
   1.0621207697267652       0.47700460901013297       0.98944643833593782     
   1.5955098598933088       0.14729184116609187       0.29607286543267286     
   2.0125561012415485       0.12886109917571789       0.10323326362432783     
   1.6743656080740614       0.49797131233634595       0.51957840452612369     
   1.4160722495137490       0.33130788853833021       0.59159513182285117     
   1.4344085774192101       0.49942420785352215       0.77610667875924644     
   2.3050290134562843       0.17322303173968942        4.1813910250245501E-002
   2.3272381203071331       0.47201816118864659        7.0297174918197786E-002
 -0.59916650578424746       0.93155152108600336        3.2142923765729456E-002
 -0.28798075085386848       0.88571704036766086       0.12215465097885481     
 -0.63105349709959557        1.2504078556907454        2.5245829662554516E-002
  0.14019000145446162       0.90759273394898576       0.48857934420703958     
  0.45778054352632425       0.83687779435339249       0.92732509294182852     
   6.2561436710346724E-002   1.2513144642250964       0.36514530026390823     
  0.32032713880631419        1.0861419525302867       0.74185732161349160     
  0.47699068456843380        1.0621203016090186       0.98942490791079507     
  0.30810240428770547        1.2506742633190122       0.66572760356926231     
  0.87267841068959584       0.87267940630683427        1.4287974223666919     
   1.2767324127820225       0.87241790607938274        1.3049674261364781     
  0.87235836240393483        1.2767312538606248        1.3049389346927769     
  0.70112253672062319       0.70112299125005284        1.1473813988451473     
  0.85731971913223248       0.68048350146944725        1.2483122326018994     
  0.68048190249787832       0.85731987597603598        1.2483104031246310     
   1.0614105558813882       0.67751693203613472        1.2761085219579889     
   1.2630494474844538       0.67889713868009627        1.1583678854318984     
   1.0681381366834319       0.87363852853667012        1.4543369137947140     
  0.67750852299709219        1.0614103667019956        1.2760981847916435     
  0.87363020716118811        1.0681386765928584        1.4543321654312384     
  0.67884985269992748        1.2630480211366297        1.1583164217407607     
   1.0685004472547146        1.0685065947442329        1.4790306558216293     
   1.2653805764592303        1.0666483997454554        1.3406597168029062     
   1.0666093567719583        1.2653836138597276        1.3406669375531926     
   1.5802571653355824       0.86316564922231065       0.88014561104110334     
   2.0126954069539096       0.82523296398778101       0.30768518415530755     
   1.6887293774791949        1.2293108769302583       0.68049667540949887     
   1.4177482897375795       0.66341947756266784       0.97410613375079813     
   1.4202335122529171        1.0800286728507233        1.1399266499191330     
   1.4371566735015180        1.2446466145217998        1.0294536486775687     
   2.2959716735037108       0.76426816455193891       0.11111350783616034     
 -0.59861264749049159        1.5678779694504918        2.0008330458044704E-002
 -0.28644185240224479        1.6133633202628013        7.1271717783969998E-002
  0.14608077564906508        1.5954667111909735       0.29517913764989989     
  0.49714364404994538        1.6743366198055476       0.51896103319345444     
  0.12459132125366407        2.0124038740656429       0.10213213831094375     
  0.33107864792941294        1.4160641016679574       0.59132910233471392     
  0.49922611795177679        1.4344017322193270       0.77588271496017502     
  0.86268262968330878        1.5802451329981160       0.87998923571224485     
   1.2288387512149013        1.6887533682651896       0.68068376012462373     
  0.82317666569367276        2.0126269855965546       0.30741558579503081     
  0.66330039641646577        1.4177444598730102       0.97399366730236614     
   1.0799384342192169        1.4202354574732128        1.1399485372604563     
   1.2445512326089940        1.4371806432562475        1.0294933394753514     
   1.5970497054882677        1.5973232231242822       0.51456676392482015     
   2.0561607339699224        1.5996907999451779       0.16411436950671174     
   1.5985602609524430        2.0562594244079082       0.16439677253174384     
   1.4157824785691802        1.4158489548870730       0.89293362762082584     
   2.5163087816771736        1.5935870643382137        2.8104044562168154E-002
   2.4143553942287079        2.0302612072318413        1.5187327797865201E-002
  0.16548853711104985        2.3047532288297057        4.1060017275900793E-002
  0.46520694433370008        2.3269959660067383        6.9605078233919371E-002
  0.75980635157677956        2.2958151418153880       0.11082757124827437     
   1.5912636365788773        2.5162679157091885        2.8225583045055094E-002
   2.0296613434146060        2.4144299329125718        1.5210692146143120E-002
   2.3219682426433845        2.3221070759628799        7.9237902224115024E-003
  -2.3285924036888175       -3.2523310743961380        1.5095497699040388E-019
  -1.8335441519349611       -3.5550127767569419        2.6883055522677990E-019
  -1.1675853264528164       -3.8257998517240903        8.7971371128151371E-019
 -0.30678624909143515       -3.9882179225022809        7.1490842188266841E-018
  0.60822889882053965       -3.9534867657094228        1.2349778014034012E-016
   1.4286652761426821       -3.7361632095967319        2.7780457216018300E-015
   2.0490569130437470       -3.4353115967998638        4.4056700486731437E-014
   2.5189079936378249       -3.1072660844522906        4.8258990285139841E-013
   2.9669844321257965       -2.6827231276304242        6.6145392148576713E-012
   3.3475599716134004       -2.1894844681914716        9.0986644708610904E-011
   3.6099615989658647       -1.7228398805436962        8.1066214711959088E-010
   3.8485258153491801       -1.0903435461316440        1.1059366906260157E-008
   4.0000000000000000       -9.7971743931788257E-016   4.5885348075273709E-007
   3.9613791504720064       0.55450448709247147        2.1568020209872986E-006
   3.8008966054444047        1.2462684280367542        1.0617151574517667E-005
   3.6016174775355054        1.7402159479532366        2.5699613234293863E-005
   3.2349442658029699        2.3526868888886350        5.3724499694643020E-005
   2.8284270241527447        2.8284272253396319        6.6124439551414424E-005
   2.3526868888886363        3.2349442658029690        5.3724499694643122E-005
   1.7402159479532362        3.6016174775355059        2.5699613234293775E-005
   1.2462684280367511        3.8008966054444056        1.0617151574517630E-005
  0.55450448709247213        3.9613791504720064        2.1568020209872986E-006
 -0.28498846185818261        3.9898347806153209        1.8928804477838974E-007
  -1.0903435461316446        3.8485258153491797        1.1059366906260119E-008
  -1.7228407450622267        3.6099611863776917        8.1065904121935318E-010
  -2.1894844681914716        3.3475599716133999        9.0986644708610904E-011
  -2.6827231276304246        2.9669844321257961        6.6145392148576713E-012
  -3.1072660844522919        2.5189079936378231        4.8258990285139498E-013
  -3.4353115967998633        2.0490569130437484        4.4056700486731121E-014
  -3.7361632095967336        1.4286652761426784        2.7780457216017709E-015
  -3.9534867657094233       0.60822889882053732        1.2349778014033923E-016
  -3.9882179225022805      -0.30678624909143570        7.1490842188268366E-018
  -3.8257998517240894       -1.1675853264528189        8.7971371128150755E-019
  -3.5550127767569402       -1.8335441519349649        2.6883055522677797E-019
  -3.2523310743961376       -2.3285924036888175        1.5095497699040600E-019
  -2.8284278508260008       -2.8284263986661928        1.2020388136939847E-019
   3.0203546307447420        1.6532153758779324        1.7340082657364643E-003
   1.6509882117374128        3.0202845634987479        1.7423196073359706E-003
  -1.5406182808574209       -3.1402126383103650       0.75000000000000044     
  -1.0141264845424329       -3.1635225330136416       0.75000000000001310     
 -0.26090396697592821       -3.1964264202017927       0.75000000000034961     
  0.53039307051511198       -3.1769384964605250       0.75000000000348266     
   1.2634768385170276       -3.1072110272182822       0.75000000001039058     
   1.7679202287958959       -3.0568259925887484       0.75000000000882416     
  -2.4367232756210537       -2.4367228297254684       0.75000000000000044     
  -1.8328147992841508       -2.6233902051008848       0.75000000000001865     
  -1.0026144599023894       -2.4919996250962493       0.75000000003124989     
 -0.24641491091453097       -2.4695552300693704       0.75000000157460345     
  0.51039168040877292       -2.4593203393723053       0.75000001256768201     
   1.2456010901198606       -2.4562097351926302       0.75000001698771490     
   2.0367853485440741       -2.5422528381282623       0.75000000150280044     
   2.6023436871849679       -2.3337706031524346       0.75000000137540923     
  -3.1402129384414006       -1.5406182366669767       0.75000000000000044     
  -2.6233908441216842       -1.8328145720567308       0.75000000000001865     
  -1.7813800648441334       -1.7813793518043435       0.75000000009374557     
  -1.0076738381541808       -1.7577111287463965       0.75000002959074097     
 -0.23481731673015416       -1.7323477822955418       0.75000156446870381     
  0.52179392734831720       -1.7331192728011366       0.75001086297896113     
   1.2542420353861174       -1.7469526012835042       0.75001240019482573     
   1.9760729012549987       -1.7331842604313283       0.75000366479290859     
   2.7640718992795450       -1.7405104757220762       0.75000013530451060     
   3.2427715448154473       -1.4462921290893107       0.75000007515065248     
  -3.1635245319754728       -1.0141265182237256       0.75000000000001310     
  -2.4920039115552997       -1.0026145053663182       0.75000000003124845     
  -1.7577169698345898       -1.0076734354892085       0.75000002958938283     
 -0.98912846459178450      -0.98912343603488562       0.75000787290765636     
 -0.22100793288861442      -0.97607537924357779       0.75034367353433884     
  0.58867846187403972      -0.93587241340290539       0.75315932122271623     
   1.2506685697778699       -1.0981541077870096       0.75138806435570515     
   1.8997375797941278      -0.92877243388861719       0.75125986187672156     
   2.6417835405741155      -0.93249720365232358       0.75007284221323511     
   3.2596350729058656      -0.91272137210948479       0.75000219594620943     
  -3.1964383183714880      -0.26090437738559097       0.75000000000034950     
  -2.4695835422680372      -0.24641587124651310       0.75000000157413382     
  -1.7323906355910610      -0.23481848956433277       0.75000156391244976     
 -0.97611369197053277      -0.22100651596929596       0.75034359726841193     
 -0.17010556098069263      -0.17009007733959505       0.76850704731048780     
  0.44468029512739837      -0.31736458689634817       0.80244652979483688     
   1.2510867265760668      -0.26506624042388760       0.84279405815630493     
   2.0368025700576524      -0.30834481934935776       0.76720929614295452     
   2.5943037598374010      -0.15361644618792206       0.75337564102397159     
   3.2954065807775401      -0.17847947628848795       0.75005176611180702     
  -3.1769889919870771       0.53039127327259961       0.75000000000348044     
  -2.4594606496581801       0.51038669379619173       0.75000001254930282     
  -1.7333611521744674       0.52178543080113404       0.75001084132314599     
 -0.93612232425067865       0.58867026420745394       0.75315470694449960     
 -0.31741088188612043       0.44467998919688279       0.80243690804928158     
  0.53074221720326920       0.53074522173118832        1.3311064415828600     
   1.2501198360760994       0.49472215902326055        1.4483635910117396     
   1.9918138566955617       0.48721569957309802       0.92339541408939541     
   2.7266222224530625       0.46645888657981416       0.75838716605140022     
   3.2807557549602078       0.50266546688710290       0.75031719315694179     
  -3.1073491361803773        1.2634719122126283       0.75000000001037292     
  -2.4567036493628147        1.2455834748363377       0.75000001690115270     
  -1.7480086613717210        1.2542043889875596       0.75001229307852058     
  -1.0993937188032834        1.2506243938878532       0.75137731844720301     
 -0.26554506305925818        1.2510696598312239       0.84262674228709045     
  0.49467838637613237        1.2501183119745476        1.4483180512994089     
   1.2513136895538859        1.2513317977908034        1.6808042058325297     
   2.0552307964451391        1.1875113905951433       0.95084419969231293     
   2.5553556900394270        1.0238584880247048       0.77984410967827378     
   3.1818344793810991        1.1041534169416634       0.75087692296483866     
  -3.0570123843091253        1.7679135789503253       0.75000000000880429     
  -2.5433118729399951        2.0367475672633448       0.75000000148615475     
  -1.7366081725888172        1.9759507612790472       0.75000356454824213     
 -0.93413874282461373        1.8995461633537620       0.75122192117027131     
 -0.31475144706707042        2.0365740570051254       0.76679283991131597     
  0.48471712247522525        1.9917253516789197       0.92277408759693813     
   1.1856475375179949        2.0551962418860263       0.95107583772705662     
   2.0215723245664790        2.0219336102971792       0.79908732414295280     
   2.8045558586951955        2.1346749508283409       0.75123327678244090     
  -2.3353853033042546        2.6022860794806779       0.75000000135374545     
  -1.7475367951286211        2.7638212265726341       0.75000012786988624     
 -0.95045536466465108        2.6411429668838124       0.75006581541245021     
 -0.17423033994876827        2.5935685716299886       0.75315226672415780     
  0.44834378228661026        2.7259771176611474       0.75817071095098998     
   1.0164211322690964        2.5551018629662763       0.77989290400428113     
   2.1341704845362486        2.8045627833175439       0.75123534962137439     
   2.5182700544156371        2.5183697296608449       0.75111589014586599     
  -1.4574837882714637        3.2423722405937552       0.75000006939807440     
 -0.95339030860373952        3.2581844014346375       0.75000175171947148     
 -0.24455351565199457        3.2930498470993914       0.75004138038646606     
  0.46224156087047280        3.2793145158908694       0.75030084807160147     
   1.0949486819485805        3.1815092017415867       0.75088121101900085     
  0.93155970544902500      -0.59893473286163668       0.77413405186843354     
   1.2504377685054400      -0.63021418021698250       0.76901184661132727     
  0.88572165008445536      -0.28784785324050932       0.84166318835910348     
   1.5679403543628161      -0.59686366297047677       0.76513096956894489     
   1.6134284576779303      -0.28461560837880095       0.80382514373548131     
  0.16869800292434720       0.16870169741567131       0.89150831764599392     
  0.48078178147991996       0.12686380375971226       0.98927338085891792     
  0.12685067262269495       0.48078265565472461       0.98926547673440801     
  0.90759465670431250       0.14024903407478109        1.1164905030061307     
   1.2513248723264248        6.2853606320405042E-002   1.0240819043440192     
  0.83687781229192004       0.45778721110529724        1.4455013690441070     
   1.0861430435649613       0.32035813577402433        1.3064280005577407     
   1.2506785376585343       0.30822262310413462        1.2494186949651866     
   1.0621207697267652       0.47700460901013297        1.4920848287519535     
   1.5955098598933088       0.14729184116609187       0.97205464907450467     
   2.0125561012415485       0.12886109917571789       0.82742494771824582     
   1.6743656080740614       0.49797131233634595        1.1396838033945929     
   1.4160722495137490       0.33130788853833021        1.1936963488671384     
   1.4344085774192101       0.49942420785352215        1.3320800090694349     
   2.3050290134562843       0.17322303173968942       0.78136043268768418     
   2.3272381203071331       0.47201816118864659       0.80272288118864832     
 -0.59916650578424746       0.93155152108600336       0.77410719282429707     
 -0.28798075085386848       0.88571704036766086       0.84161598823414108     
 -0.63105349709959557        1.2504078556907454       0.76893437224691585     
  0.14019000145446162       0.90759273394898576        1.1164345081552796     
  0.45778054352632425       0.83687779435339249        1.4454938197063714     
   6.2561436710346724E-002   1.2513144642250964        1.0238589751979312     
  0.32032713880631419        1.0861419525302867        1.3063929912101186     
  0.47699068456843380        1.0621203016090186        1.4920686809330963     
  0.30810240428770547        1.2506742633190122        1.2492957026769467     
  0.87267841068959584       0.87267940630683427        1.8215980667750189     
   1.2767324127820225       0.87241790607938274        1.7287255696023585     
  0.87235836240393483        1.2767312538606248        1.7287042010195828     
  0.70112253672062319       0.70112299125005284        1.6105360491338605     
  0.85731971913223248       0.68048350146944725        1.6862341744514246     
  0.68048190249787832       0.85731987597603598        1.6862328023434734     
   1.0614105558813882       0.67751693203613472        1.7070813914684917     
   1.2630494474844538       0.67889713868009627        1.6187759140739237     
   1.0681381366834319       0.87363852853667012        1.8407526853460354     
  0.67750852299709219        1.0614103667019956        1.7070736385937326     
  0.87363020716118811        1.0681386765928584        1.8407491240734288     
  0.67884985269992748        1.2630480211366297        1.6187373163055705     
   1.0685004472547146        1.0685065947442329        1.8592729918662219     
   1.2653805764592303        1.0666483997454554        1.7554947876021796     
   1.0666093567719583        1.2653836138597276        1.7555002031648943     
   1.5802571653355824       0.86316564922231065        1.4101092082808275     
   2.0126954069539096       0.82523296398778101       0.98076388811648063     
   1.6887293774791949        1.2293108769302583        1.2603725065571241     
   1.4177482897375795       0.66341947756266784        1.4805796003130987     
   1.4202335122529171        1.0800286728507233        1.6049449874393498     
   1.4371566735015180        1.2446466145217998        1.5220902365081765     
   2.2959716735037108       0.76426816455193891       0.83333513087712019     
 -0.59861264749049159        1.5678779694504918       0.76500624784353355     
 -0.28644185240224479        1.6133633202628013       0.80345378833797754     
  0.14608077564906508        1.5954667111909735       0.97138435323742489     
  0.49714364404994538        1.6743366198055476        1.1392207748950909     
  0.12459132125366407        2.0124038740656429       0.82659910373320777     
  0.33107864792941294        1.4160641016679574        1.1934968267510353     
  0.49922611795177679        1.4344017322193270        1.3319120362201313     
  0.86268262968330878        1.5802451329981160        1.4099919267841836     
   1.2288387512149013        1.6887533682651896        1.2605128200934677     
  0.82317666569367276        2.0126269855965546       0.98056168934627308     
  0.66330039641646577        1.4177444598730102        1.4804952504767745     
   1.0799384342192169        1.4202354574732128        1.6049614029453423     
   1.2445512326089940        1.4371806432562475        1.5221200046065135     
   1.5970497054882677        1.5973232231242822        1.1359250729436150     
   2.0561607339699224        1.5996907999451779       0.87308577713003377     
   1.5985602609524430        2.0562594244079082       0.87329757939880792     
   1.4157824785691802        1.4158489548870730        1.4197002207156193     
   2.5163087816771736        1.5935870643382137       0.77107803342162606     
   2.4143553942287079        2.0302612072318413       0.76139049584839891     
  0.16548853711104985        2.3047532288297057       0.78079501295692555     
  0.46520694433370008        2.3269959660067383       0.80220380867543950     
  0.75980635157677956        2.2958151418153880       0.83312067843620574     
   1.5912636365788773        2.5162679157091885       0.77116918728379136     
   2.0296613434146060        2.4144299329125718       0.76140801910960731     
   2.3219682426433845        2.3221070759628799       0.75594284266680867     
  -2.3285924036888175       -3.2523310743961380       0.75000000000000000     
  -1.8335441519349611       -3.5550127767569419       0.75000000000000000     
  -1.1675853264528164       -3.8257998517240903       0.75000000000000000     
 -0.30678624909143515       -3.9882179225022809       0.75000000000000000     
  0.60822889882053965       -3.9534867657094228       0.75000000000000011     
   1.4286652761426821       -3.7361632095967319       0.75000000000000211     
   2.0490569130437470       -3.4353115967998638       0.75000000000003308     
   2.5189079936378249       -3.1072660844522906       0.75000000000036193     
   2.9669844321257965       -2.6827231276304242       0.75000000000496092     
   3.3475599716134004       -2.1894844681914716       0.75000000006823997     
   3.6099615989658647       -1.7228398805436962       0.75000000060799665     
   3.8485258153491801       -1.0903435461316440       0.75000000829452518     
   4.0000000000000000       -9.7971743931788257E-016  0.75000034414011052     
   3.9613791504720064       0.55450448709247147       0.75000161760151574     