 VARIABLES = "X", "Y", "Z"
 ZONE F=FEPOINT, ET=BRICK, N=         610 E=         412
  -1.5412778583740112       -3.1407362697055041        7.7357153478017220E-006
  -1.0154002774169117       -3.1643924246415982        2.2345743438152057E-005
 -0.26266526574450533       -3.1974034828610174        6.3885915067587976E-005
  0.52899867821025126       -3.1776199468623414        1.4082884642974708E-004
   1.2632944259204433       -3.1075962423299970        2.3678965016670845E-004
   1.7685972375068932       -3.0571282797697612        2.5709539593387341E-004
  -2.4374635688782411       -2.4374631001945573        1.1770967230804226E-005
  -1.8345617960295380       -2.6249393971338604        3.2262217279084682E-005
  -1.0069275317510544       -2.4952662550325955        4.4784829790675746E-004
 -0.25303650118349652       -2.4733824004597773        1.6926193785266350E-003
  0.50473324984502166       -2.4614493281441061        3.4193316603270737E-003
   1.2453006686459567       -2.4567809636364202        3.8034007416312440E-003
   2.0407976213606807       -2.5436049179337603        1.5435769248758630E-003
   2.6076932756057034       -2.3364384881601916        1.5405506541855758E-003
  -3.1407366374058285       -1.5412778130593792        7.7356980106513756E-006
  -2.6249402547547747       -1.8345615237659498        3.2262111500976723E-005
  -1.7862105400362096       -1.7862092560288230        6.2461470636164290E-004
  -1.0180424802319947       -1.7666217942578102        4.1929371457613994E-003
 -0.25424678540498780       -1.7458687156910553        1.5518761474123600E-002
  0.50106632013648322       -1.7388505421097820        3.0479170762699518E-002
   1.2538175751330383       -1.7423213603934404        3.3013836815631289E-002
   1.9953987099256294       -1.7380088956613517        2.1072212419765340E-002
   2.7786633989286074       -1.7503323622904876        6.9513216667410711E-003
   3.2512582491627309       -1.4533618376237472        5.9525782693738557E-003
  -3.1643948046725972       -1.0154003184143523        2.2345418002687768E-005
  -2.4952721288646114       -1.0069275383737351        4.4783584061541630E-004
  -1.7666322322153853       -1.0180411464214265        4.1928378157642986E-003
  -1.0097721267006559       -1.0097579094593538        2.6382145462709488E-002
 -0.25345263034392279       -1.0022817115356910        9.2565707505689321E-002
  0.50068453799812274      -0.99838011146782568       0.17980695970882199     
   1.2493363102436585      -0.99616934228763032       0.19766515881225777     
   1.9847406809481352      -0.98916982531871844       0.12769635667451482     
   2.6716836929641667      -0.95492480881072384        5.5430872456921895E-002
   3.2760785313500604      -0.92657228954575976        1.7774123801781221E-002
  -3.1974168991616310      -0.26266572221861090        6.3881317762970444E-005
  -2.4734183456912575      -0.25303760808126030        1.6923728560983009E-003
  -1.7459373405885876      -0.25424738249176893        1.5516032490106933E-002
  -1.0023815367860265      -0.25343971714574764        9.2548070757706519E-002
 -0.25102117552211167      -0.25091138582442291       0.31685863999515884     
  0.50133086126286441      -0.24841329163999859       0.61075393709321379     
   1.2496169148412939      -0.24489834828034926       0.67110428615813356     
   1.9809177313966326      -0.23799748340400603       0.43263461482149723     
   2.6720289339538978      -0.22432572499852324       0.17743952897558493     
   3.3202886268255942      -0.19194988792598988        5.0752982994860849E-002
  -3.1776744948294815       0.52899674466457725        1.4078407298126670E-004
  -2.4616140375862607       0.50472752120911768        3.4172321059554112E-003
  -1.7391944940318782       0.50105570949972178        3.0452219117061627E-002
 -0.99890833471766349       0.50068041240709016       0.17960989247824108     
 -0.24901882934854083       0.50140968213915127       0.61030326240816279     
  0.50360803397538267       0.50411865055307747        1.1722225330759446     
   1.2550868903526482       0.50928928042108046        1.2820691719145934     
   2.0028619590242061       0.51694393853422815       0.80678201574451502     
   2.7119227142841646       0.50518885337459740       0.30892209382277575     
   3.3441257751753453       0.50489718056125821        8.6006417415931791E-002
  -3.1077414487607307        1.2632892531531288        2.3655967921904370E-004
  -2.4573245767225327        1.2452813832528575        3.7959536767595069E-003
  -1.7436328348813959        1.2537720047045762        3.2903826410749820E-002
 -0.99834135002879931        1.2492693037927662       0.19678156634567653     
 -0.24745593268664490        1.2495946052743303       0.66892547907532451     
  0.50712789502572164        1.2553558239696543        1.2807551381716191     
   1.2612366446006553        1.2625136145328490        1.3903809410341268     
   2.0167967511975231        1.2762986958237341       0.85883518847955687     
   2.8748658407258261        1.3205620735270807       0.24643062973606894     
   3.3722453725677775       0.99423836332152726        9.1142701184645084E-002
  -3.0573217683114748        1.7685903384835071        2.5676328580046860E-004
  -2.5447223703102702        2.0407578181585646        1.5351483081602862E-003
  -1.7417948630646503        1.9952643697665990        2.0871750221492801E-002
 -0.99625004302065401        1.9844940128057629       0.12587147318713110     
 -0.24667602519871334        1.9806445627049920       0.42800425093030114     
  0.50986923717636579        2.0027775507056913       0.80434813112630266     
   1.2725257420062981        2.0172320872564162       0.85940315424970370     
   2.0018291188978039        2.0030952789787038       0.54932011376563050     
   2.6507329226846736        2.0754586120528056       0.21775823998830618     
  -2.3381049278459205        2.6076338532591494        1.5339570398435699E-003
  -1.7576254437255199        2.7784035291832017        6.8266726418791980E-003
 -0.97396490724770646        2.6710070986821548        5.3390012308637366E-002
 -0.24910736688325336        2.6711594554814235       0.17222375930584205     
  0.48615202419401343        2.7113017653198144       0.30658877025503750     
   1.3132878693294567        2.8747565356499845       0.24705569413218539     
   2.0740341343121069        2.6509865309421823       0.21798938018539490     
   2.5233966837582371        2.5237067808456506       0.14756638110203368     
  -1.4647215609647559        3.2508530740936927        5.7837231165662421E-003
 -0.96778034661505874        3.2746094504994128        1.6416757680852927E-002
 -0.25887352621796650        3.3179055941977325        4.6940437296950868E-002
  0.46369058478663577        3.3426690172004010        8.4633425844649335E-002
  0.98288118185497475        3.3718586631127248        9.1210312663545734E-002
  -2.3285924036888175       -3.2523310743961380        4.1986224897097150E-007
  -1.8335441519349611       -3.5550127767569419        6.6801044549273218E-007
  -1.1675853264528164       -3.8257998517240903        5.3015041753717871E-007
 -0.30678624909143515       -3.9882179225022809        2.6545294750945708E-006
  0.60822889882053965       -3.9534867657094228        6.6887185349718709E-006
   1.4286652761426821       -3.7361632095967319        5.3638567109671053E-006
   2.0490569130437470       -3.4353115967998638        4.7082207350398896E-005
   2.5189079936378249       -3.1072660844522906        7.7873775281680628E-005
   2.9669844321257965       -2.6827231276304242        2.0085685981251992E-004
   3.3475599716134004       -2.1894844681914716        5.4666528029408427E-004
   3.6099615989658647       -1.7228398805436962        1.1635092539164027E-003
   3.8485258153491801       -1.0903435461316440        2.9293527440164024E-003
   4.0000000000000000       -9.7971743931788257E-016   1.0106920498628207E-002
   3.9613791504720064       0.55450448709247158        1.7206222572773697E-002
   3.8008966054444047        1.2462684280367542        2.8514702727493693E-002
   3.6016174775355054        1.7402159479532366        3.7753462267722429E-002
   3.2349442658029699        2.3526868888886350        4.9633192052875447E-002
   2.8284270241527447        2.8284272253396319        5.3848648124920725E-002
   2.3526868888886363        3.2349442658029690        4.9633192052875447E-002
   1.7402159479532362        3.6016174775355059        3.7753462267722394E-002
   1.2462684280367511        3.8008966054444056        2.8514702727493645E-002
  0.55450448709247213        3.9613791504720064        1.7206222572773697E-002
 -0.28498846185818261        3.9898347806153209        7.6056946246579535E-003
  -1.0903435461316446        3.8485258153491797        2.9293527440164011E-003
  -1.7228407450622267        3.6099611863776917        1.1635079721966542E-003
  -2.1894844681914716        3.3475599716133999        5.4666528029408503E-004
  -2.6827231276304246        2.9669844321257961        2.0085685981251921E-004
  -3.1072660844522919        2.5189079936378231        7.7873775281680100E-005
  -3.4353115967998633        2.0490569130437484        4.7082207350398882E-005
  -3.7361632095967332        1.4286652761426784        5.3638567109670714E-006
  -3.9534867657094233       0.60822889882053732        6.6887185349718582E-006
  -3.9882179225022805      -0.30678624909143570        2.6545294750945776E-006
  -3.8257998517240894       -1.1675853264528189        5.3015041753717363E-007
  -3.5550127767569402       -1.8335441519349649        6.6801044549273567E-007
  -3.2523310743961376       -2.3285924036888175        4.1986224897097203E-007
  -2.8284278508260008       -2.8284263986661928        5.0870766793541953E-007
  -1.5412778583740112       -3.1407362697055041       0.75000580178651088     
  -1.0154002774169117       -3.1643924246415982       0.75001675930757861     
 -0.26266526574450533       -3.1974034828610174       0.75004791443630070     
  0.52899867821025126       -3.1776199468623414       0.75010562163482231     
   1.2632944259204433       -3.1075962423299970       0.75017759223762503     
   1.7685972375068932       -3.0571282797697612       0.75019282154695044     
  -2.4374635688782411       -2.4374631001945573       0.75000882822542314     
  -1.8345617960295380       -2.6249393971338604       0.75002419666295927     
  -1.0069275317510544       -2.4952662550325955       0.75033588622343006     
 -0.25303650118349652       -2.4733824004597773       0.75126946453389498     
  0.50473324984502166       -2.4614493281441061       0.75256449874524534     
   1.2453006686459567       -2.4567809636364202       0.75285255055622347     
   2.0407976213606807       -2.5436049179337603       0.75115768269365690     
   2.6076932756057034       -2.3364384881601916       0.75115541299063915     
  -3.1407366374058285       -1.5412778130593792       0.75000580177350795     
  -2.6249402547547747       -1.8345615237659498       0.75002419658362574     
  -1.7862105400362096       -1.7862092560288230       0.75046846102977127     
  -1.0180424802319947       -1.7666217942578102       0.75314470285932100     
 -0.25424678540498780       -1.7458687156910553       0.76163907110559270     
  0.50106632013648322       -1.7388505421097820       0.77285937807202465     
   1.2538175751330383       -1.7423213603934404       0.77476037761172345     
   1.9953987099256294       -1.7380088956613517       0.76580415931482404     
   2.7786633989286074       -1.7503323622904876       0.75521349125005577     
   3.2512582491627309       -1.4533618376237472       0.75446443370203042     
  -3.1643948046725972       -1.0154003184143523       0.75001675906350207     
  -2.4952721288646114       -1.0069275383737351       0.75033587688046155     
  -1.7666322322153853       -1.0180411464214265       0.75314462836182328     
  -1.0097721267006559       -1.0097579094593538       0.76978660909703212     
 -0.25345263034392279       -1.0022817115356910       0.81942428062926698     
  0.50068453799812274      -0.99838011146782568       0.88485521978161652     
   1.2493363102436585      -0.99616934228763032       0.89824886910919333     
   1.9847406809481352      -0.98916982531871844       0.84577226750588608     
   2.6716836929641667      -0.95492480881072384       0.79157315434269138     
   3.2760785313500604      -0.92657228954575976       0.76333059285133587     
  -3.1974168991616310      -0.26266572221861090       0.75004791098832224     
  -2.4734183456912575      -0.25303760808126030       0.75126927964207368     
  -1.7459373405885876      -0.25424738249176893       0.76163702436758018     
  -1.0023815367860265      -0.25343971714574764       0.81941105306827988     
 -0.25102117552211167      -0.25091138582442291       0.98764397999636910     
  0.50133086126286441      -0.24841329163999859        1.2080654528199104     
   1.2496169148412939      -0.24489834828034926        1.2533282146186002     
   1.9809177313966326      -0.23799748340400603        1.0744759611161230     
   2.6720289339538978      -0.22432572499852324       0.88307964673168871     
   3.3202886268255942      -0.19194988792598988       0.78806473724614567     
  -3.1776744948294815       0.52899674466457725       0.75010558805473593     
  -2.4616140375862607       0.50472752120911768       0.75256292407946657     
  -1.7391944940318782       0.50105570949972178       0.77283916433779620     
 -0.99890833471766349       0.50068041240709016       0.88470741935868080     
 -0.24901882934854083       0.50140968213915127        1.2077274468061221     
  0.50360803397538267       0.50411865055307747        1.6291668998069584     
   1.2550868903526482       0.50928928042108046        1.7115518789359450     
   2.0028619590242061       0.51694393853422815        1.3550865118083864     
   2.7119227142841646       0.50518885337459740       0.98169157036708188     
   3.3441257751753453       0.50489718056125821       0.81450481306194888     
  -3.1077414487607307        1.2632892531531288       0.75017741975941432     
  -2.4573245767225327        1.2452813832528575       0.75284696525756967     
  -1.7436328348813959        1.2537720047045762       0.77467786980806241     
 -0.99834135002879931        1.2492693037927662       0.89758617475925739     
 -0.24745593268664490        1.2495946052743303        1.2516941093064933     
  0.50712789502572164        1.2553558239696543        1.7105663536287143     
   1.2612366446006553        1.2625136145328490        1.7927857057755952     
   2.0167967511975231        1.2762986958237341        1.3941263913596678     
   2.8748658407258261        1.3205620735270807       0.93482297230205169     
   3.3722453725677775       0.99423836332152726       0.81835702588848380     
  -3.0573217683114748        1.7685903384835071       0.75019257246435034     
  -2.5447223703102702        2.0407578181585646       0.75115136123112025     
  -1.7417948630646503        1.9952643697665990       0.76565381266611965     
 -0.99625004302065401        1.9844940128057629       0.84440360489034827     
 -0.24667602519871334        1.9806445627049920        1.0710031881977260     
  0.50986923717636579        2.0027775507056913        1.3532610983447269     
   1.2725257420062981        2.0172320872564162        1.3945523656872778     
   2.0018291188978039        2.0030952789787038        1.1619900853242229     
   2.6507329226846736        2.0754586120528056       0.91331867999122962     
  -2.3381049278459205        2.6076338532591494       0.75115046777988270     
  -1.7576254437255199        2.7784035291832017       0.75512000448140937     
 -0.97396490724770646        2.6710070986821548       0.79004250923147801     
 -0.24910736688325336        2.6711594554814235       0.87916781947938150     
  0.48615202419401343        2.7113017653198144       0.97994157769127810     
   1.3132878693294567        2.8747565356499845       0.93529177059913904     
   2.0740341343121069        2.6509865309421823       0.91349203513904620     
   2.5233966837582371        2.5237067808456506       0.86067478582652523     
  -1.4647215609647559        3.2508530740936927       0.75433779233742471     
 -0.96778034661505874        3.2746094504994128       0.76231256826063964     
 -0.25887352621796650        3.3179055941977325       0.78520532797271314     
  0.46369058478663577        3.3426690172004010       0.81347506938348701     
  0.98288118185497475        3.3718586631127248       0.81840773449765924     
  -2.3285924036888175       -3.2523310743961380       0.75000031489668673     
  -1.8335441519349611       -3.5550127767569419       0.75000050100783411     
  -1.1675853264528164       -3.8257998517240903       0.75000039761281312     
 -0.30678624909143515       -3.9882179225022809       0.75000199089710629     
  0.60822889882053965       -3.9534867657094228       0.75000501653890128     
   1.4286652761426821       -3.7361632095967319       0.75000402289253321     
   2.0490569130437470       -3.4353115967998638       0.75003531165551285     
   2.5189079936378249       -3.1072660844522906       0.75005840533146129     
   2.9669844321257965       -2.6827231276304242       0.75015064264485942     
   3.3475599716134004       -2.1894844681914716       0.75040999896022054     
   3.6099615989658647       -1.7228398805436962       0.75087263194043730     
   3.8485258153491801       -1.0903435461316440       0.75219701455801236     
   4.0000000000000000       -9.7971743931788257E-016  0.75758019037397117     
   3.9613791504720064       0.55450448709247158       0.76290466692958026     
   3.8008966054444047        1.2462684280367542       0.77138602704562031     
   3.6016174775355054        1.7402159479532366       0.77831509670079180     
   3.2349442658029699        2.3526868888886350       0.78722489403965656     
   2.8284270241527447        2.8284272253396319       0.79038648609369055     
   2.3526868888886363        3.2349442658029690       0.78722489403965656     
   1.7402159479532362        3.6016174775355059       0.77831509670079180     
   1.2462684280367511        3.8008966054444056       0.77138602704562020     
  0.55450448709247213        3.9613791504720064       0.76290466692958026     
 -0.28498846185818261        3.9898347806153209       0.75570427096849346     
  -1.0903435461316446        3.8485258153491797       0.75219701455801236     
  -1.7228407450622267        3.6099611863776917       0.75087263097914747     
  -2.1894844681914716        3.3475599716133999       0.75040999896022054     
  -2.6827231276304246        2.9669844321257961       0.75015064264485942     
  -3.1072660844522919        2.5189079936378231       0.75005840533146129     
  -3.4353115967998633        2.0490569130437484       0.75003531165551285     
  -3.7361632095967332        1.4286652761426784       0.75000402289253321     
  -3.9534867657094233       0.60822889882053732       0.75000501653890128     
  -3.9882179225022805      -0.30678624909143570       0.75000199089710629     
  -3.8257998517240894       -1.1675853264528189       0.75000039761281312     
  -3.5550127767569402       -1.8335441519349649       0.75000050100783411     
  -3.2523310743961376       -2.3285924036888175       0.75000031489668673     
  -2.8284278508260008       -2.8284263986661928       0.75000038153075099     
  -1.5412778583740112       -3.1407362697055041        1.5000038678576739     
  -1.0154002774169117       -3.1643924246415982        1.5000111728717191     
 -0.26266526574450533       -3.1974034828610174        1.5000319429575337     
  0.52899867821025126       -3.1776199468623414        1.5000704144232149     
   1.2632944259204433       -3.1075962423299970        1.5001183948250834     
   1.7685972375068932       -3.0571282797697612        1.5001285476979669     
  -2.4374635688782411       -2.4374631001945573        1.5000058854836154     
  -1.8345617960295380       -2.6249393971338604        1.5000161311086395     
  -1.0069275317510544       -2.4952662550325955        1.5002239241489534     
 -0.25303650118349652       -2.4733824004597773        1.5008463096892632     
  0.50473324984502166       -2.4614493281441061        1.5017096658301636     
   1.2453006686459567       -2.4567809636364202        1.5019017003708157     
   2.0407976213606807       -2.5436049179337603        1.5007717884624379     
   2.6076932756057034       -2.3364384881601916        1.5007702753270928     
  -3.1407366374058285       -1.5412778130593792        1.5000038678490053     
  -2.6249402547547747       -1.8345615237659498        1.5000161310557505     
  -1.7862105400362096       -1.7862092560288230        1.5003123073531808     
  -1.0180424802319947       -1.7666217942578102        1.5020964685728806     
 -0.25424678540498780       -1.7458687156910553        1.5077593807370617     
  0.50106632013648322       -1.7388505421097820        1.5152395853813498     
   1.2538175751330383       -1.7423213603934404        1.5165069184078157     
   1.9953987099256294       -1.7380088956613517        1.5105361062098828     
   2.7786633989286074       -1.7503323622904876        1.5034756608333706     
   3.2512582491627309       -1.4533618376237472        1.5029762891346869     
  -3.1643948046725972       -1.0154003184143523        1.5000111727090013     
  -2.4952721288646114       -1.0069275383737351        1.5002239179203076     
  -1.7666322322153853       -1.0180411464214265        1.5020964189078823     
  -1.0097721267006559       -1.0097579094593538        1.5131910727313547     
 -0.25345263034392279       -1.0022817115356910        1.5462828537528446     
  0.50068453799812274      -0.99838011146782568        1.5899034798544109     
   1.2493363102436585      -0.99616934228763032        1.5988325794061289     
   1.9847406809481352      -0.98916982531871844        1.5638481783372573     
   2.6716836929641667      -0.95492480881072384        1.5277154362284608     
   3.2760785313500604      -0.92657228954575976        1.5088870619008905     
  -3.1974168991616310      -0.26266572221861090        1.5000319406588816     
  -2.4734183456912575      -0.25303760808126030        1.5008461864280491     
  -1.7459373405885876      -0.25424738249176893        1.5077580162450535     
  -1.0023815367860265      -0.25343971714574764        1.5462740353788533     
 -0.25102117552211167      -0.25091138582442291        1.6584293199975795     
  0.50133086126286441      -0.24841329163999859        1.8053769685466068     
   1.2496169148412939      -0.24489834828034926        1.8355521430790667     
   1.9809177313966326      -0.23799748340400603        1.7163173074107485     
   2.6720289339538978      -0.22432572499852324        1.5887197644877924     
   3.3202886268255942      -0.19194988792598988        1.5253764914974304     
  -3.1776744948294815       0.52899674466457725        1.5000703920364906     
  -2.4616140375862607       0.50472752120911768        1.5017086160529778     
  -1.7391944940318782       0.50105570949972178        1.5152261095585309     
 -0.99890833471766349       0.50068041240709016        1.5898049462391206     
 -0.24901882934854083       0.50140968213915127        1.8051516312040814     
  0.50360803397538267       0.50411865055307747        2.0861112665379724     
   1.2550868903526482       0.50928928042108046        2.1410345859572968     
   2.0028619590242061       0.51694393853422815        1.9033910078722576     
   2.7119227142841646       0.50518885337459740        1.6544610469113878     
   3.3441257751753453       0.50489718056125821        1.5430032087079659     
  -3.1077414487607307        1.2632892531531288        1.5001182798396095     
  -2.4573245767225327        1.2452813832528575        1.5018979768383798     
  -1.7436328348813959        1.2537720047045762        1.5164519132053749     
 -0.99834135002879931        1.2492693037927662        1.5983907831728383     
 -0.24745593268664490        1.2495946052743303        1.8344627395376623     
  0.50712789502572164        1.2553558239696543        2.1403775690858096     
   1.2612366446006553        1.2625136145328490        2.1951904705170633     
   2.0167967511975231        1.2762986958237341        1.9294175942397784     
   2.8748658407258261        1.3205620735270807        1.6232153148680344     
   3.3722453725677775       0.99423836332152726        1.5455713505923225     
  -3.0573217683114748        1.7685903384835071        1.5001283816429003     
  -2.5447223703102702        2.0407578181585646        1.5007675741540802     
  -1.7417948630646503        1.9952643697665990        1.5104358751107465     
 -0.99625004302065401        1.9844940128057629        1.5629357365935657     
 -0.24667602519871334        1.9806445627049920        1.7140021254651505     
  0.50986923717636579        2.0027775507056913        1.9021740655631514     
   1.2725257420062981        2.0172320872564162        1.9297015771248518     
   2.0018291188978039        2.0030952789787038        1.7746600568828153     
   2.6507329226846736        2.0754586120528056        1.6088791199941530     
  -2.3381049278459205        2.6076338532591494        1.5007669785199218     
  -1.7576254437255199        2.7784035291832017        1.5034133363209397     
 -0.97396490724770646        2.6710070986821548        1.5266950061543187     
 -0.24910736688325336        2.6711594554814235        1.5861118796529210     
  0.48615202419401343        2.7113017653198144        1.6532943851275188     
   1.3132878693294567        2.8747565356499845        1.6235278470660928     
   2.0740341343121069        2.6509865309421823        1.6089946900926975     
   2.5233966837582371        2.5237067808456506        1.5737831905510169     
  -1.4647215609647559        3.2508530740936927        1.5028918615582831     
 -0.96778034661505874        3.2746094504994128        1.5082083788404264     
 -0.25887352621796650        3.3179055941977325        1.5234702186484754     
  0.46369058478663577        3.3426690172004010        1.5423167129223248     
  0.98288118185497475        3.3718586631127248        1.5456051563317730     
  -2.3285924036888175       -3.2523310743961380        1.5000002099311245     
  -1.8335441519349611       -3.5550127767569419        1.5000003340052228     
  -1.1675853264528164       -3.8257998517240903        1.5000002650752087     
 -0.30678624909143515       -3.9882179225022809        1.5000013272647374     
  0.60822889882053965       -3.9534867657094228        1.5000033443592675     
   1.4286652761426821       -3.7361632095967319        1.5000026819283554     
   2.0490569130437470       -3.4353115967998638        1.5000235411036753     
   2.5189079936378249       -3.1072660844522906        1.5000389368876408     
   2.9669844321257965       -2.6827231276304242        1.5001004284299062     
   3.3475599716134004       -2.1894844681914716        1.5002733326401470     
   3.6099615989658647       -1.7228398805436962        1.5005817546269582     
   3.8485258153491801       -1.0903435461316440        1.5014646763720083     
   4.0000000000000000       -9.7971743931788257E-016   1.5050534602493142     
   3.9613791504720064       0.55450448709247158        1.5086031112863869     
   3.8008966054444047        1.2462684280367542        1.5142573513637470     
   3.6016174775355054        1.7402159479532366        1.5188767311338611     
   3.2349442658029699        2.3526868888886350        1.5248165960264377     
   2.8284270241527447        2.8284272253396319        1.5269243240624604     
   2.3526868888886363        3.2349442658029690        1.5248165960264377     
   1.7402159479532362        3.6016174775355059        1.5188767311338611     
   1.2462684280367511        3.8008966054444056        1.5142573513637467     
  0.55450448709247213        3.9613791504720064        1.5086031112863869     
 -0.28498846185818261        3.9898347806153209        1.5038028473123290     
  -1.0903435461316446        3.8485258153491797        1.5014646763720083     
  -1.7228407450622267        3.6099611863776917        1.5005817539860984     
  -2.1894844681914716        3.3475599716133999        1.5002733326401470     
  -2.6827231276304246        2.9669844321257961        1.5001004284299062     
  -3.1072660844522919        2.5189079936378231        1.5000389368876408     
  -3.4353115967998633        2.0490569130437484        1.5000235411036753     
  -3.7361632095967332        1.4286652761426784        1.5000026819283554     
  -3.9534867657094233       0.60822889882053732        1.5000033443592675     
  -3.9882179225022805      -0.30678624909143570        1.5000013272647374     
  -3.8257998517240894       -1.1675853264528189        1.5000002650752087     
  -3.5550127767569402       -1.8335441519349649        1.5000003340052228     
  -3.2523310743961376       -2.3285924036888175        1.5000002099311245     
  -2.8284278508260008       -2.8284263986661928        1.5000002543538340     
  -1.5412778583740112       -3.1407362697055041        2.2500019339288371     
  -1.0154002774169117       -3.1643924246415982        2.2500055864358597     
 -0.26266526574450533       -3.1974034828610174        2.2500159714787671     
  0.52899867821025126       -3.1776199468623414        2.2500352072116074     
   1.2632944259204433       -3.1075962423299970        2.2500591974125417     
   1.7685972375068932       -3.0571282797697612        2.2500642738489836     
  -2.4374635688782411       -2.4374631001945573        2.2500029427418076     
  -1.8345617960295380       -2.6249393971338604        2.2500080655543200     
  -1.0069275317510544       -2.4952662550325955        2.2501119620744765     
 -0.25303650118349652       -2.4733824004597773        2.2504231548446318     
  0.50473324984502166       -2.4614493281441061        2.2508548329150817     
   1.2453006686459567       -2.4567809636364202        2.2509508501854079     