 VARIABLES = "X", "Y", "Z", "Material ID"
 ZONE F=FEPOINT, ET=QUADRILATERAL, N=         526 E=         447
   1.5028384733454312       0.52869294183736149        0.0000000000000000                1
   1.9908481618785072       0.53113561466107395        0.0000000000000000                1
   1.4180212958679492        1.0867093593578652        0.0000000000000000                1
   1.9975310239241526       0.99271815356741788        0.0000000000000000                1
   2.4999774794176015       0.98701069539627195        0.0000000000000000                1
  0.57718056659000727        1.4100489944580850        0.0000000000000000                1
   2.4595064736260039        1.5039233486002794        0.0000000000000000                1
  0.51156195889029010        1.9384039494666527        0.0000000000000000                1
   2.4729175819646372        1.9805812145086461        0.0000000000000000                1
  0.54121676025447685        2.4762710488384045        0.0000000000000000                1
  0.90450084771483796        2.4956243975735464        0.0000000000000000                1
   2.0954210957677644        2.5830385974320498        0.0000000000000000                1
   2.4578142844439350        2.5328968555649976        0.0000000000000000                1
  0.53676517007105451        2.9737328299899350        0.0000000000000000                1
   2.4603792922513996        3.0063123652238075        0.0000000000000000                1
  0.49118562612816885        3.5077648697621253        0.0000000000000000                1
  0.98884350103993024        3.5164876607831013        0.0000000000000000                1
   1.9996711605666486        3.4979224889540408        0.0000000000000000                1
   2.4663266568268685        3.5044035531211435        0.0000000000000000                1
   2.4355749858075719        3.9637774853612333        0.0000000000000000                1
   1.2334998489407953       0.26272070626279648        0.0000000000000000                1
   1.5161347897414992       0.25716014509769919        0.0000000000000000                1
   1.2841373100624531       0.47494104799079878        0.0000000000000000                1
   1.1118360097572979       0.37676491590721944        0.0000000000000000                1
   1.1299241680510546       0.48619849370168389        0.0000000000000000                1
   1.8142015033235377       0.25758529483185011        0.0000000000000000                1
   1.9683411327211167       0.35459872950467736        0.0000000000000000                1
   1.7668296609834080       0.51934095840651795        0.0000000000000000                1
   1.2682974471260395       0.75856178154458143        0.0000000000000000                1
   1.5713389802266045       0.74481534785188463        0.0000000000000000                1
   1.2632752898707216        1.0286482483401667        0.0000000000000000                1
   1.1344577741463857       0.62199285821788197        0.0000000000000000                1
   1.2743049286277064       0.62581271849658693        0.0000000000000000                1
   1.1333788488463579       0.75476395429552190        0.0000000000000000                1
   1.3846763789764380       0.64249510822791422        0.0000000000000000                1
   1.4078490897672962       0.75520155598737926        0.0000000000000000                1
   1.1324459732242487       0.88486048903820136        0.0000000000000000                1
   1.2703262547184822       0.89537870833359268        0.0000000000000000                1
   1.1303214312219561        1.0110979548709749        0.0000000000000000                1
   1.4200654105314481       0.90925668270781157        0.0000000000000000                1
   1.7873206010139824       0.76282021733496752        0.0000000000000000                1
   1.9686444099884606       0.72709610829252092        0.0000000000000000                1
   1.7410109796660866       0.94344741343680505        0.0000000000000000                1
   1.8901252603934557       0.87592093576213548        0.0000000000000000                1
   1.9870513401910372       0.86984685646503845        0.0000000000000000                1
   1.8762310857185607       0.97403937523729001        0.0000000000000000                1
   2.2465979038527943        1.0104355727592600        0.0000000000000000                1
   2.1031725286894316       0.63429153100512270        0.0000000000000000                1
   2.1076703028898005       0.74764294045225876        0.0000000000000000                1
   2.1163615235165993       0.88013379255105451        0.0000000000000000                1
   2.2457422993891671       0.89977484432365407        0.0000000000000000                1
   2.1209482411468965        1.0020116174166442        0.0000000000000000                1
   2.3650539536715565       0.91476589789656537        0.0000000000000000                1
   2.4457365914038260       0.91638566911656560        0.0000000000000000                1
   2.3698604233891021        1.0118535489848186        0.0000000000000000                1
   2.7104532823425496        1.0289036587505882        0.0000000000000000                1
   2.6252620059201055        1.0149954984415608        0.0000000000000000                1
  0.24596529961973859        1.2189447593190057        0.0000000000000000                1
  0.52217585081050943        1.2581360492503095        0.0000000000000000                1
  0.20283991838235590        1.5322185565096167        0.0000000000000000                1
  0.18379009044274405        1.0830497435553994        0.0000000000000000                1
  0.26286507261008096        1.1060636686736607        0.0000000000000000                1
  0.12142756027172120        1.1452910703555725        0.0000000000000000                1
  0.38081682614641976        1.1226653327966467        0.0000000000000000                1
  0.50700773992205883        1.1276313630245420        0.0000000000000000                1
  0.38310237076804876        1.2531518769746153        0.0000000000000000                1
   9.6043395515577334E-002   1.2621439216883314        0.0000000000000000                1
  0.18468734676779022        1.3560084110865720        0.0000000000000000                1
  0.38629304462575714        1.4005094973987506        0.0000000000000000                1
  0.75612143906538698        1.2437982140382442        0.0000000000000000                1
  0.99921898991102054        1.2517633813437021        0.0000000000000000                1
  0.73571108120298667        1.4667290412837328        0.0000000000000000                1
  0.63112610216982978        1.1262750226789826        0.0000000000000000                1
  0.75310512534669005        1.1245628150713018        0.0000000000000000                1
  0.64264701035869909        1.2480038983980297        0.0000000000000000                1
  0.87586573475047103        1.1248494184964832        0.0000000000000000                1
   1.0006106872854106        1.1277778244794405        0.0000000000000000                1
  0.87558616107344112        1.2472056111315448        0.0000000000000000                1
  0.66001843312719899        1.3372362812229648        0.0000000000000000                1
  0.75062837119859604        1.3542201170412100        0.0000000000000000                1
  0.87312259083781962        1.3663950026028913        0.0000000000000000                1
  0.99809415474928043        1.3741171150295581        0.0000000000000000                1
  0.86944175399426205        1.4804086268118675        0.0000000000000000                1
   1.2554302303084335        1.2760630803236024        0.0000000000000000                1
   1.4811326846916664        1.2617510291962384        0.0000000000000000                1
   1.1273910796939954        1.1353819363328832        0.0000000000000000                1
   1.2510867099646190        1.1478754374347064        0.0000000000000000                1
   1.1233811378734360        1.2593527742589063        0.0000000000000000                1
   1.3413958420216250        1.1648204275282317        0.0000000000000000                1
   1.3600061952179014        1.2425135139795231        0.0000000000000000                1
   1.1195155094384752        1.3809507444356790        0.0000000000000000                1
   1.2258815128918188        1.3928813330237844        0.0000000000000000                1
   1.3769049130623447        1.3858304239991315        0.0000000000000000                1
   1.4951698351829024        1.3650633275841697        0.0000000000000000                1
   1.3162621131577570        1.3347132146507701        0.0000000000000000                1
   1.3706172988093457        1.3221970801850680        0.0000000000000000                1
   1.3127955731937213        1.4107871484744963        0.0000000000000000                1
   1.4240375270286030        1.3211022532510817        0.0000000000000000                1
   1.4339433106584643        1.3725813983808288        0.0000000000000000                1
   1.3432051006065702        1.4539042164242544        0.0000000000000000                1
   1.3814524812859155        1.4440737601503513        0.0000000000000000                1
   1.4378225037072794        1.4374044319119552        0.0000000000000000                1
   1.4988300248953763        1.4346481149460917        0.0000000000000000                1
   1.7450645318023743        1.2586020526706512        0.0000000000000000                1
   1.9914073530079237        1.2353152048859695        0.0000000000000000                1
   1.5905027834157426        1.0844669358666215        0.0000000000000000                1
   1.7373316247736419        1.0945813262838324        0.0000000000000000                1
   1.6066634441770689        1.2200783663751262        0.0000000000000000                1
   1.8714992515437747        1.1053027357645513        0.0000000000000000                1
   1.9966548183333548        1.1146169722715837        0.0000000000000000                1
   1.8767549974153639        1.2266764341639183        0.0000000000000000                1
   1.6226156425108900        1.3727728451505992        0.0000000000000000                1
   1.7495168048053371        1.3656114219062199        0.0000000000000000                1
   1.6248209308071013        1.4995902850647678        0.0000000000000000                1
   1.5620461649539366        1.3154404008559595        0.0000000000000000                1
   1.6184443360999299        1.3092361665648165        0.0000000000000000                1
   1.5596192233403812        1.3684674545917270        0.0000000000000000                1
   1.6765387291900169        1.3155672035431401        0.0000000000000000                1
   1.6848432102674118        1.3687532866900118        0.0000000000000000                1
   1.5614115794583356        1.4349139668647075        0.0000000000000000                1
   1.6242295020419302        1.4357021509971848        0.0000000000000000                1
   1.5622162637178603        1.4994486681568724        0.0000000000000000                1
   1.6870497370815456        1.4352243771993765        0.0000000000000000                1
   1.7501020995720811        1.4352734977361963        0.0000000000000000                1
   1.6874724421640079        1.4995637694028803        0.0000000000000000                1
   1.8792103998969767        1.3893346686189891        0.0000000000000000                1
   1.8218801262496220        1.3208792611849622        0.0000000000000000                1
   1.8835427037805661        1.3204672841975118        0.0000000000000000                1
   1.8149900654672304        1.3739029741572510        0.0000000000000000                1
   1.9424001596437563        1.4198601857413775        0.0000000000000000                1
   1.8126949733680136        1.4385743115445462        0.0000000000000000                1
   1.8714339356237473        1.4463034994142681        0.0000000000000000                1
   1.9146842987891117        1.4568368995111511        0.0000000000000000                1
   2.2428488134111331        1.2570957307527728        0.0000000000000000                1
   2.5217279701928019        1.2710202950159213        0.0000000000000000                1
   2.2588055290016147        1.5187037511268253        0.0000000000000000                1
   2.1205667002691548        1.1239207010087469        0.0000000000000000                1
   2.2469204754140084        1.1303607313912460        0.0000000000000000                1
   2.1137658510755157        1.2504800463493722        0.0000000000000000                1
   2.3768967728480108        1.1312282234484146        0.0000000000000000                1
   2.5111350420329179        1.1219055477745827        0.0000000000000000                1
   2.3723140610959126        1.2661579854917195        0.0000000000000000                1
   2.0903612936984479        1.4019975734193169        0.0000000000000000                1
   2.2474764745025060        1.3871562205615786        0.0000000000000000                1
   2.1216257733952872        1.5420144356237195        0.0000000000000000                1
   2.3546938769526831        1.3718127667334703        0.0000000000000000                1
   2.7395158496607155        1.1869205842294481        0.0000000000000000                1
   2.7455166102342292        1.4929179520047451        0.0000000000000000                1
   2.6101906709585445        1.1042583629166658        0.0000000000000000                1
  0.22248019614107831        1.7131793235194619        0.0000000000000000                1
  0.42584695835650443        1.7366367891077301        0.0000000000000000                1
  0.24473337623703020        1.9281696547647913        0.0000000000000000                1
  0.73184875776414327        1.7233501861094038        0.0000000000000000                1
  0.72623848466439322        1.9871609391954923        0.0000000000000000                1
  0.57389677697499497        1.5821922034086295        0.0000000000000000                1
  0.72818275643701913        1.5930497280321474        0.0000000000000000                1
  0.59129378804711563        1.7314546268649103        0.0000000000000000                1
  0.86722091350022834        1.5922176125382113        0.0000000000000000                1
  0.86693548910966955        1.7111691209144611        0.0000000000000000                1
  0.61943415532057511        1.8398070001844093        0.0000000000000000                1
  0.72945879223002763        1.8487603607839460        0.0000000000000000                1
  0.86748379692056288        1.8373964246613879        0.0000000000000000                1
  0.87466203199487147        1.9653115165523074        0.0000000000000000                1
   1.6250018525096506        1.6255497657749320        0.0000000000000000                1
   1.6250928847970243        1.7560212051626038        0.0000000000000000                1
   1.5624430052983189        1.5626232151854227        0.0000000000000000                1
   1.6249707821367860        1.5626956349171919        0.0000000000000000                1
   1.5624902426371805        1.6253922879830072        0.0000000000000000                1
   1.6875143793381115        1.5626391894748133        0.0000000000000000                1
   1.6875123554608145        1.6253851628343976        0.0000000000000000                1
   1.5625188136439148        1.6887973014450535        0.0000000000000000                1
   1.6250248791622952        1.6892846482559090        0.0000000000000000                1
   1.5626003995206701        1.7545694886080290        0.0000000000000000                1
   1.6875164239892841        1.6887365114869419        0.0000000000000000                1
   1.6875322848915377        1.7541957258686447        0.0000000000000000                1
   1.6254925639863660        1.8987481905734458        0.0000000000000000                1
   1.5629474196244244        1.8281211318359614        0.0000000000000000                1
   1.6252779228959104        1.8285847643139796        0.0000000000000000                1
   1.5647069908489091        1.9190995158037234        0.0000000000000000                1
   1.6874785276138935        1.8259115944151207        0.0000000000000000                1
   1.6868104178016308        1.9160813745553389        0.0000000000000000                1
   1.5915681021404775        1.9587559814012732        0.0000000000000000                1
   1.6254242732326827        1.9541308542678917        0.0000000000000000                1
   1.6598897460104702        1.9580978160667770        0.0000000000000000                1
   2.2507648204316859        1.7704574088966731        0.0000000000000000                1
   2.5266163681638782        1.7466661558837984        0.0000000000000000                1
   2.2679963701318040        2.0461702288489416        0.0000000000000000                1
   2.1268732509830990        1.6648945895490244        0.0000000000000000                1
   2.2560390602318670        1.6471649712849290        0.0000000000000000                1
   2.1275670087016283        1.7900332081627224        0.0000000000000000                1
   2.3573816028551642        1.6470310078551267        0.0000000000000000                1
   2.3708604666949831        1.7554124943104787        0.0000000000000000                1
   2.1286818687483446        1.9189746709081490        0.0000000000000000                1
   2.2600752211607911        1.8963437553143307        0.0000000000000000                1
   2.1232945134870063        2.0545700125873783        0.0000000000000000                1
   2.3623783444016286        1.8668893307706442        0.0000000000000000                1
   2.7475452142407537        1.7458916763169934        0.0000000000000000                1
   2.7441139225725570        1.9958973507205953        0.0000000000000000                1
  0.25797077026429749        2.1714186095005994        0.0000000000000000                1
  0.51894882212076132        2.1949414091380417        0.0000000000000000                1
  0.25810556778326599        2.4252179507361964        0.0000000000000000                1
  0.78743430983022522        2.1717793304852773        0.0000000000000000                1
  0.80323211683297213        2.4189685933621887        0.0000000000000000                1
  0.89423577509137675        2.0624187182269726        0.0000000000000000                1
   2.2103478332476318        2.2562293717228128        0.0000000000000000                1
   2.4768874247132864        2.2555777616654553        0.0000000000000000                1
   2.1962104294472216        2.4957519039073488        0.0000000000000000                1
   2.1047977315485826        2.1638193996448711        0.0000000000000000                1
   2.7387056989429110        2.2516229143254738        0.0000000000000000                1
   2.7410395107650105        2.5069540348969235        0.0000000000000000                1
  0.25395969314566230        2.6772072329376080        0.0000000000000000                1
  0.47812097660935904        2.7152326712780797        0.0000000000000000                1
  0.25097478517951927        2.9299625442650687        0.0000000000000000                1
  0.75809704545964074        2.7276961229230312        0.0000000000000000                1
  0.73400867366998668        2.9868411413822740        0.0000000000000000                1
  0.65614504375838201        2.6144840267293055        0.0000000000000000                1
  0.76325387297225966        2.5971430733539278        0.0000000000000000                1
  0.63714812887090533        2.7301012577840238        0.0000000000000000                1
  0.88735949065532704        2.5891182984192378        0.0000000000000000                1
  0.87835499460773991        2.7141128393098510        0.0000000000000000                1
  0.64432017113703410        2.8439903717095198        0.0000000000000000                1
  0.74463779473675351        2.8544890620212540        0.0000000000000000                1
  0.87292241888829214        2.8467231577082273        0.0000000000000000                1
  0.86874665983302879        2.9873576532265136        0.0000000000000000                1
   2.2417695120990482        2.7693853620916671        0.0000000000000000                1
   2.5211813990864309        2.7601557135468000        0.0000000000000000                1
   2.2648909721528945        3.0080636155597467        0.0000000000000000                1
   2.1125818775266825        2.6705869961301119        0.0000000000000000                1
   2.2365860789158019        2.6506047896124629        0.0000000000000000                1
   2.1215763466474162        2.7873124152035107        0.0000000000000000                1
   2.3436235080071763        2.6531951574504888        0.0000000000000000                1
   2.3624946192892846        2.7621081373218130        0.0000000000000000                1
   2.1268110883143039        2.9015898454944775        0.0000000000000000                1
   2.2549260568263199        2.8863662078251955        0.0000000000000000                1
   2.1299497872014159        3.0134775016325319        0.0000000000000000                1
   2.3551580001763837        2.8686574387505672        0.0000000000000000                1
   2.7454145523270950        2.7557334369367474        0.0000000000000000                1
   2.7464302394690709        3.0044295059236292        0.0000000000000000                1
  0.24345585492817462        3.1942463924706450        0.0000000000000000                1
  0.46237927340428536        3.2318665732953860        0.0000000000000000                1
  0.22663072094899983        3.5109318396570099        0.0000000000000000                1
  0.74404418046288601        3.2511269469989488        0.0000000000000000                1
  0.98806490431310623        3.2564206036892331        0.0000000000000000                1
  0.69822322183715235        3.5543143611004111        0.0000000000000000                1
  0.63894252653714434        3.1294113115125586        0.0000000000000000                1
  0.73973227647118356        3.1210037865789531        0.0000000000000000                1
  0.62163482631978884        3.2453936975438484        0.0000000000000000                1
  0.86701401987315563        3.1238801660297937        0.0000000000000000                1
  0.98583417212334123        3.1332645948103153        0.0000000000000000                1
  0.86612155583404971        3.2542623008200455        0.0000000000000000                1
  0.62456432098280423        3.3663691832710589        0.0000000000000000                1
  0.72739014618696352        3.3862604224105199        0.0000000000000000                1
  0.86142091709677626        3.3886635713271400        0.0000000000000000                1
  0.99180451535482939        3.3837710622452852        0.0000000000000000                1
  0.85522836896027721        3.5321183450788394        0.0000000000000000                1
   1.2408868458941447        3.2402000613707562        0.0000000000000000                1
   1.2466112569442749        3.5072937418402885        0.0000000000000000                1
   1.0882880988501720        3.1494295502741361        0.0000000000000000                1
   1.0949806890417420        3.2532666764399112        0.0000000000000000                1
   1.1716274734616028        3.1662911316260884        0.0000000000000000                1
   1.2375519549343452        3.1786378581769132        0.0000000000000000                1
   1.1763687360378865        3.2450928429730186        0.0000000000000000                1
   1.3721677774722432        3.2454262063473447        0.0000000000000000                1
   1.2797716216103339        3.1832060200841266        0.0000000000000000                1
   1.3075879733699796        3.2281699607138128        0.0000000000000000                1
   1.4149066616198609        3.2519290242602614        0.0000000000000000                1
   1.1371969975766663        3.3779821763978468        0.0000000000000000                1
   1.2398221922108759        3.3748872943640049        0.0000000000000000                1
   1.1036727984665546        3.5077035442101643        0.0000000000000000                1
   1.1893783960519879        3.3032793226379291        0.0000000000000000                1
   1.2418655333832536        3.3065518845140183        0.0000000000000000                1
   1.1929617717825081        3.4477290991201954        0.0000000000000000                1
   1.2439636005967893        3.4417729134938222        0.0000000000000000                1
   1.1851302248632922        3.5052847527875466        0.0000000000000000                1
   1.3758683349492509        3.3751830009806261        0.0000000000000000                1
   1.4975880716327385        3.3751895254557640        0.0000000000000000                1
   1.3705575841301145        3.5167595593199854        0.0000000000000000                1
   1.3086509616148609        3.3061591388842495        0.0000000000000000                1
   1.3735461166666649        3.3076599027321798        0.0000000000000000                1
   1.3092206642616195        3.3746131423480006        0.0000000000000000                1
   1.4449571988760535        3.3027310103504885        0.0000000000000000                1
   1.4980281306845762        3.3293337679026913        0.0000000000000000                1
   1.4399111240282478        3.3754588331161441        0.0000000000000000                1
   1.3092269202606062        3.4419410282673564        0.0000000000000000                1
   1.3739971410493788        3.4435664959832910        0.0000000000000000                1
   1.3068138037199961        3.5073615214056191        0.0000000000000000                1
   1.4462196146630788        3.4492750309045759        0.0000000000000000                1
   1.4974991567293947        3.4210287524253817        0.0000000000000000                1
   1.4203105070606978        3.5028494524131446        0.0000000000000000                1
   1.7482019577663366        3.2453959866954309        0.0000000000000000                1
   2.0055895637948491        3.2584720083474190        0.0000000000000000                1
   1.7467279613468629        3.4965936221453280        0.0000000000000000                1
   1.6150237156344960        3.2515300459908882        0.0000000000000000                1
   1.5732977069645031        3.2575244506653505        0.0000000000000000                1
   1.7028494637805227        3.1918587704158710        0.0000000000000000                1
   1.7435229938860306        3.1880417475529428        0.0000000000000000                1
   1.6792697454686096        3.2345187108258791        0.0000000000000000                1
   1.8937807624189882        3.1586216144030090        0.0000000000000000                1
   2.0052947410235302        3.1404208713180117        0.0000000000000000                1
   1.8962556449556096        3.2566097253261557        0.0000000000000000                1
   1.8073172103776070        3.1767509203894915        0.0000000000000000                1
   1.8133358529889898        3.2496925328172583        0.0000000000000000                1
   1.6187654059981980        3.3743967949612856        0.0000000000000000                1
   1.7564462243155368        3.3741082382944239        0.0000000000000000                1
   1.6102211019877604        3.5037606422356569        0.0000000000000000                1
   1.5484797227512399        3.3046572421657174        0.0000000000000000                1
   1.6194353950669582        3.3100486580651558        0.0000000000000000                1
   1.5548198910182198        3.3748272133102621        0.0000000000000000                1
   1.6847986708262854        3.3085015963672402        0.0000000000000000                1
   1.7523424156860667        3.3084643554746656        0.0000000000000000                1
   1.6863362804894537        3.3739634864741506        0.0000000000000000                1
   1.5446001598272634        3.4449346712614566        0.0000000000000000                1
   1.6173859244373594        3.4385359625919150        0.0000000000000000                1
   1.5614167573015463        3.4910374304775873        0.0000000000000000                1
   1.6846288990608762        3.4375303778783630        0.0000000000000000                1
   1.7518369533354032        3.4377616717494801        0.0000000000000000                1
   1.6829960287892425        3.4973862149176962        0.0000000000000000                1
   1.8573623577399467        3.3753375860706214        0.0000000000000000                1
   2.0014479075843723        3.3789161221144997        0.0000000000000000                1
   1.8881541301359364        3.4949102209271627        0.0000000000000000                1
   1.8052535487878867        3.3048716842244716        0.0000000000000000                1
   1.8033013446756763        3.4434476095300726        0.0000000000000000                1
   1.8082399633513397        3.4954726066257615        0.0000000000000000                1
   2.2507412901661352        3.2544562563014812        0.0000000000000000                1
   2.5247076004243927        3.2588964445569624        0.0000000000000000                1
   2.2666761790763674        3.5342172415308677        0.0000000000000000                1
   2.1299791546116138        3.1321899485395432        0.0000000000000000                1
   2.2579563102207172        3.1318315472076130        0.0000000000000000                1