 VARIABLES = "X", "Y", "Z"
 ZONE F=FEPOINT, ET=QUADRILATERAL, N=         526 E=         447
   1.5003774956766966       0.52887870174829021        0.0000000000000000     
   1.9897844460044567       0.53056421682346688        0.0000000000000000     
   1.4179833712616812        1.0867099226954711        0.0000000000000000     
   1.9974818595186441       0.99269812430493032        0.0000000000000000     
   2.4997589579388526       0.98661923224471038        0.0000000000000000     
  0.57714994132262154        1.4101188976675072        0.0000000000000000     
   2.4592419506872547        1.5028923487900292        0.0000000000000000     
  0.51155999232069149        1.9384302550324906        0.0000000000000000     
   2.4728918908037678        1.9804018236748628        0.0000000000000000     
  0.54121792648865175        2.4763006821429578        0.0000000000000000     
  0.90450087157568648        2.4956327334787294        0.0000000000000000     
   2.0954210909497428        2.5830449480046496        0.0000000000000000     
   2.4578153075864808        2.5328780420448145        0.0000000000000000     
  0.53680020042272458        2.9740987924410618        0.0000000000000000     
   2.4604339337876775        3.0060127800249612        0.0000000000000000     
  0.49164624398967571        3.5102761712137189        0.0000000000000000     
  0.98886531963569502        3.5165449620602311        0.0000000000000000     
   1.9996970264870193        3.4978725227750607        0.0000000000000000     
   2.4670364501204496        3.5025141001280589        0.0000000000000000     
   2.4368598123261398        3.9629434621051569        0.0000000000000000     
   1.2284269141424102       0.26601031111685075        0.0000000000000000     
   1.5092792163803308       0.25739495189145001        0.0000000000000000     
   1.2819431979978453       0.47600743328221223        0.0000000000000000     
   1.1103803893668587       0.37995276107357595        0.0000000000000000     
   1.1288649269432252       0.48720169040478001        0.0000000000000000     
   1.8084454376163379       0.25538800987858035        0.0000000000000000     
   1.9662342508635369       0.35241879072975607        0.0000000000000000     
   1.7644822258152366       0.51872293813030512        0.0000000000000000     
   1.2680032852037519       0.75865561363068523        0.0000000000000000     
   1.5705344369663312       0.74478978954207353        0.0000000000000000     
   1.2632510173162126        1.0286515294145671        0.0000000000000000     
   1.1340064945249069       0.62227876522013070        0.0000000000000000     
   1.2734736592644178       0.62614549556779797        0.0000000000000000     
   1.1332284924358729       0.75483084792972899        0.0000000000000000     
   1.3837289766255598       0.64269538519070257        0.0000000000000000     
   1.4073211254629325       0.75526908297684014        0.0000000000000000     
   1.1324033352170286       0.88487448618026132        0.0000000000000000     
   1.2702295382654978       0.89539896183188583        0.0000000000000000     
   1.1303110649061705        1.0111019218828001        0.0000000000000000     
   1.4198933815549322       0.90926707407870044        0.0000000000000000     
   1.7866118723403956       0.76267653198435847        0.0000000000000000     
   1.9681486350213468       0.72690327313764158        0.0000000000000000     
   1.7408104097408388       0.94341597822101053        0.0000000000000000     
   1.8899262562661405       0.87586622923537627        0.0000000000000000     
   1.9868887979909116       0.86978857805898258        0.0000000000000000     
   1.8761226307578152       0.97401296464813225        0.0000000000000000     
   2.2465585717429124        1.0103582658627972        0.0000000000000000     
   2.1029109380677475       0.63413774884031449        0.0000000000000000     
   2.1074772420086818       0.74753965380149356        0.0000000000000000     
   2.1162797494818473       0.88008976167383079        0.0000000000000000     
   2.2457096438122224       0.89973596977465586        0.0000000000000000     
   2.1209169361302589        1.0019817701738729        0.0000000000000000     
   2.3650218660154860       0.91470010456974615        0.0000000000000000     
   2.4456936174631188       0.91630173829005035        0.0000000000000000     
   2.3697624170920135        1.0116486234766948        0.0000000000000000     
   2.7084110901524272        1.0272734086287594        0.0000000000000000     
   2.6245886063216242        1.0140291129597574        0.0000000000000000     
  0.24547325921967678        1.2199012132497535        0.0000000000000000     
  0.52212970409255388        1.2582240497543613        0.0000000000000000     
  0.20279349698628835        1.5323640433495036        0.0000000000000000     
  0.18248732575699159        1.0838150872050758        0.0000000000000000     
  0.26243818887027975        1.1065905432033027        0.0000000000000000     
  0.12004455292023727        1.1480229155650044        0.0000000000000000     
  0.38068406459916643        1.1228656939570782        0.0000000000000000     
  0.50697286407407227        1.1276896903623512        0.0000000000000000     
  0.38294000397288841        1.2534613193512409        0.0000000000000000     
   9.5662559899018354E-002   1.2646920011276486        0.0000000000000000     
  0.18446097901675151        1.3566920489569512        0.0000000000000000     
  0.38618703776248192        1.4007654166835635        0.0000000000000000     
  0.75611951326439153        1.2438026811801939        0.0000000000000000     
  0.99922022698014812        1.2517638156453532        0.0000000000000000     
  0.73570584307416020        1.4667437449331084        0.0000000000000000     
  0.63111845506243880        1.1262885367923656        0.0000000000000000     
  0.75310387983869387        1.1245653703561151        0.0000000000000000     
  0.64263642060324666        1.2480244258215454        0.0000000000000000     
  0.87586579892340677        1.1248499284009024        0.0000000000000000     
   1.0006106046014562        1.1277782405431029        0.0000000000000000     
  0.87558643231996958        1.2472068107599603        0.0000000000000000     
  0.66000983571119776        1.3372548768943788        0.0000000000000000     
  0.75062498252477861        1.3542289648917087        0.0000000000000000     
  0.87312272417678294        1.3663975917585642        0.0000000000000000     
  0.99809732315300626        1.3741178588918426        0.0000000000000000     
  0.86944127161654650        1.4804146619060974        0.0000000000000000     
   1.2554294214878476        1.2760631941171705        0.0000000000000000     
   1.4811265716009117        1.2617507986409420        0.0000000000000000     
   1.1273893977094702        1.1353826124112987        0.0000000000000000     
   1.2510822804829385        1.1478759828196765        0.0000000000000000     
   1.1233821946549112        1.2593530088234404        0.0000000000000000     
   1.3413903025602474        1.1648206001246699        0.0000000000000000     
   1.3600030918233319        1.2425135375693293        0.0000000000000000     
   1.1195203974764978        1.3809508889272124        0.0000000000000000     
   1.2258817654051726        1.3928813774195850        0.0000000000000000     
   1.3769010399887489        1.3858304254842200        0.0000000000000000     
   1.4951684209444034        1.3650633006078479        0.0000000000000000     
   1.3162602109249770        1.3347132355710936        0.0000000000000000     
   1.3706152279674184        1.3221970786413324        0.0000000000000000     
   1.3127900379610256        1.4107871605434150        0.0000000000000000     
   1.4240357603268805        1.3211022294790289        0.0000000000000000     
   1.4339407980738523        1.3725813848912718        0.0000000000000000     
   1.3431960401052871        1.4539042181220898        0.0000000000000000     
   1.3814449715964876        1.4440737607225960        0.0000000000000000     
   1.4378185474073253        1.4374044301317950        0.0000000000000000     
   1.4988290388345911        1.4346481089514918        0.0000000000000000     
   1.7450568840930616        1.2586007849189591        0.0000000000000000     
   1.9914009703274160        1.2353037169023946        0.0000000000000000     
   1.5904491448019433        1.0844627868431183        0.0000000000000000     
   1.7372832119657442        1.0945740276912475        0.0000000000000000     
   1.6066537655721276        1.2200774688654419        0.0000000000000000     
   1.8714686644750678        1.1052950624627107        0.0000000000000000     
   1.9966382287030868        1.1146053722332843        0.0000000000000000     
   1.8767484592690156        1.2266736067609012        0.0000000000000000     
   1.6226153957749783        1.3727728250126425        0.0000000000000000     
   1.7495161483820807        1.3656113106507592        0.0000000000000000     
   1.6248207615667996        1.4995902828066205        0.0000000000000000     
   1.5620450441280396        1.3154403265543637        0.0000000000000000     
   1.6184429572982291        1.3092360235668701        0.0000000000000000     
   1.5596186170833866        1.3684674318508547        0.0000000000000000     
   1.6765376085456347        1.3155670493233378        0.0000000000000000     
   1.6848427690159760        1.3687532217730543        0.0000000000000000     
   1.5614112844858106        1.4349139582422901        0.0000000000000000     
   1.6242293918374748        1.4357021466397393        0.0000000000000000     
   1.5622160656151598        1.4994486042224526        0.0000000000000000     
   1.6870496620413771        1.4352243748645155        0.0000000000000000     
   1.7501020252876629        1.4352734893827122        0.0000000000000000     
   1.6874723366648772        1.4995638285692223        0.0000000000000000     
   1.8792103427036744        1.3893338768691088        0.0000000000000000     
   1.8218792063363274        1.3208789419752818        0.0000000000000000     
   1.8835415103677402        1.3204656733569009        0.0000000000000000     
   1.8149897152373431        1.3739028165647185        0.0000000000000000     
   1.9423996703783724        1.4198563940011022        0.0000000000000000     
   1.8126948762460859        1.4385742722664598        0.0000000000000000     
   1.8714342503567962        1.4463032888374483        0.0000000000000000     
   1.9146852904476119        1.4568365482635948        0.0000000000000000     
   2.2427884657619077        1.2569176812746437        0.0000000000000000     
   2.5211672891025292        1.2694943259959992        0.0000000000000000     
   2.2587364631710871        1.5184321415988276        0.0000000000000000     
   2.1205483899371655        1.1238835503882179        0.0000000000000000     
   2.2468678515163667        1.1302286067101746        0.0000000000000000     
   2.1137483424320198        1.2504284323344506        0.0000000000000000     
   2.3767263196339292        1.1308202607017086        0.0000000000000000     
   2.5106467151816529        1.1208664431453743        0.0000000000000000     
   2.3721254539497609        1.2656254905353448        0.0000000000000000     
   2.0903444721830367        1.4019397984570394        0.0000000000000000     
   2.2474083890462992        1.3869169046286374        0.0000000000000000     
   2.1216075426599463        1.5419466984549299        0.0000000000000000     
   2.3545472079617062        1.3713272062740971        0.0000000000000000     
   2.7375888622531295        1.1825642668216172        0.0000000000000000     
   2.7451043866517031        1.4895470973569422        0.0000000000000000     
   2.6092929670295715        1.1026409392929957        0.0000000000000000     
  0.22247048453227655        1.7132501675740035        0.0000000000000000     
  0.42583630699206104        1.7366857387997725        0.0000000000000000     
  0.24473160838045424        1.9282304202122511        0.0000000000000000     
  0.73184680558361215        1.7233587275022972        0.0000000000000000     
  0.72623818872431734        1.9871697324235373        0.0000000000000000     
  0.57387992189967563        1.5822401704642546        0.0000000000000000     
  0.72817839554174557        1.5930637842510356        0.0000000000000000     
  0.59128792317300582        1.7314782950360432        0.0000000000000000     
  0.86722020690344193        1.5922255465606010        0.0000000000000000     
  0.86693506866287828        1.7111720741553200        0.0000000000000000     
  0.61943258045876048        1.8398194681234175        0.0000000000000000     
  0.72945811373095049        1.8487669621331744        0.0000000000000000     
  0.86748363140363427        1.8373969450639398        0.0000000000000000     
  0.87466197521071165        1.9653165537595683        0.0000000000000000     
   1.6249963239594978        1.6255497619028056        0.0000000000000000     
   1.6249999758146652        1.7560212046589443        0.0000000000000000     
   1.5624423138747854        1.5626226209655705        0.0000000000000000     
   1.6249698139081392        1.5626956315883600        0.0000000000000000     
   1.5624863313592849        1.6253877143101723        0.0000000000000000     
   1.6875136993663116        1.5626397751008994        0.0000000000000000     
   1.6875084460300527        1.6253897257180205        0.0000000000000000     
   1.5625009504983505        1.6887668146718566        0.0000000000000000     
   1.6249996581053205        1.6892846454704180        0.0000000000000000     
   1.5625340247447719        1.7543826034953762        0.0000000000000000     
   1.6874985656526971        1.6887669902354867        0.0000000000000000     
   1.6874659410487998        1.7543826102403777        0.0000000000000000     
   1.6249999999512752        1.8987481920738569        0.0000000000000000     
   1.5627343506038636        1.8270163684166330        0.0000000000000000     
   1.6249999987153980        1.8285847656086671        0.0000000000000000     
   1.5639477273720486        1.9175904490888458        0.0000000000000000     
   1.6872656475794148        1.8270163630239860        0.0000000000000000     
   1.6860522725603611        1.9175904453555475        0.0000000000000000     
   1.5908381928608981        1.9584268998467238        0.0000000000000000     
   1.6250000000030276        1.9541308550294327        0.0000000000000000     
   1.6591618071435992        1.9584268990347500        0.0000000000000000     
   2.2507450928381441        1.7703582564349911        0.0000000000000000     
   2.5265162901711786        1.7460294405035472        0.0000000000000000     
   2.2679906531218750        2.0461306965979955        0.0000000000000000     
   2.1268600158736790        1.6648383857669711        0.0000000000000000     
   2.2559941266052506        1.6469718797726260        0.0000000000000000     
   2.1275601740469567        1.7899988922672623        0.0000000000000000     
   2.3573056182571492        1.6466872164486093        0.0000000000000000     
   2.3708096436343560        1.7551485382023808        0.0000000000000000     
   2.1286788848683651        1.9189600594464309        0.0000000000000000     
   2.2600652630884550        1.8962830343563613        0.0000000000000000     
   2.1232931293298476        2.0545640958093987        0.0000000000000000     
   2.3623570727742900        1.8667513242985621        0.0000000000000000     
   2.7474453208295557        1.7451297779397688        0.0000000000000000     
   2.7440898267999829        1.9957287528193806        0.0000000000000000     
  0.25797064338411857        2.1714661149986036        0.0000000000000000     
  0.51894868256224069        2.1949649446319932        0.0000000000000000     
  0.25810662385594146        2.4252540755849963        0.0000000000000000     
  0.78743424991186028        2.1717894364463222        0.0000000000000000     
  0.80323223954662903        2.4189810479545821        0.0000000000000000     
  0.89423575613539097        2.0624244493061243        0.0000000000000000     
   2.2103455605396536        2.2562177226614741        0.0000000000000000     
   2.4768822075298895        2.2555391579485433        0.0000000000000000     
   2.1962101604417259        2.4957532996447087        0.0000000000000000     
   2.1047970944593239        2.1638188850941096        0.0000000000000000     
   2.7387009721943061        2.2516045531263997        0.0000000000000000     
   2.7410404301310525        2.5069332351380398        0.0000000000000000     
  0.25396649435091406        2.6773001510863037        0.0000000000000000     
  0.47812833838725544        2.7153322405819686        0.0000000000000000     
  0.25100942163138790        2.9303809249588859        0.0000000000000000     
  0.75809803317478797        2.7277147627630520        0.0000000000000000     
  0.73401711072352638        2.9869319276406512        0.0000000000000000     
  0.65614593085162443        2.6145032813414315        0.0000000000000000     
  0.76325422113825359        2.5971546708011748        0.0000000000000000     
  0.63715168376315745        2.7301514514179246        0.0000000000000000     
  0.88735956990623410        2.5891258751380999        0.0000000000000000     
  0.87835528995611978        2.7141241784607377        0.0000000000000000     
  0.64432632410549118        2.8440695147181811        0.0000000000000000     
  0.74464142708030989        2.8545369955304252        0.0000000000000000     
  0.87292329439484806        2.8467389798345830        0.0000000000000000     
  0.86874888494174884        2.9873814528271665        0.0000000000000000     
   2.2417710528313566        2.7693732047249044        0.0000000000000000     
   2.5211929131430928        2.7600759811428413        0.0000000000000000     
   2.2649035825767774        3.0079871278313011        0.0000000000000000     
   2.1125819793271421        2.6705918789220835        0.0000000000000000     
   2.2365865507775116        2.6506025372885587        0.0000000000000000     
   2.1215768146091727        2.7873088862827040        0.0000000000000000     
   2.3436248059602338        2.6531844509180691        0.0000000000000000     
   2.3625001255335762        2.7620690532895207        0.0000000000000000     
   2.1268124745682733        2.9015747976137405        0.0000000000000000     
   2.2549316978863287        2.8863264717521333        0.0000000000000000     
   2.1299532606894438        3.0134545842833806        0.0000000000000000     
   2.3551675594791948        2.8685920206121232        0.0000000000000000     
   2.7454253244652520        2.7556575123595333        0.0000000000000000     
   2.7464865002049481        3.0040882882347200        0.0000000000000000     
  0.24359713835115576        3.1959306311067843        0.0000000000000000     
  0.46253627828827787        3.2333240460636397        0.0000000000000000     
  0.22715027653553041        3.5184907851132232        0.0000000000000000     
  0.74408700010673978        3.2513631101812894        0.0000000000000000     
  0.98807062368230247        3.2564425023162675        0.0000000000000000     
  0.69847759727781200        3.5550940630091534        0.0000000000000000     
  0.63897765283051544        3.1297201434232202        0.0000000000000000     
  0.73975012588771061        3.1211420210401437        0.0000000000000000     
  0.62172720505523904        3.2460120600657714        0.0000000000000000     
  0.86702039701219169        3.1239219785736032        0.0000000000000000     
  0.98583479084808934        3.1332741581924304        0.0000000000000000     
  0.86614074094449622        3.2543463938179280        0.0000000000000000     
  0.62471787106879106        3.3672044307491706        0.0000000000000000     
  0.72750147623516703        3.3867494782854441        0.0000000000000000     
  0.86146950825220170        3.3888228060933492        0.0000000000000000     
  0.99181841752837896        3.3838108965691167        0.0000000000000000     
  0.85531184143535799        3.5323354911399019        0.0000000000000000     
   1.2408878027868997        3.2402006934887062        0.0000000000000000     
   1.2466088634147610        3.5072957157568569        0.0000000000000000     
   1.0882854220367886        3.1494298815936603        0.0000000000000000     
   1.0949810148793999        3.2532706803849862        0.0000000000000000     
   1.1716254047839132        3.1662903765346648        0.0000000000000000     
   1.2375545090610514        3.1786391892939463        0.0000000000000000     
   1.1763684248305804        3.2450933729116285        0.0000000000000000     
   1.3721674416767304        3.2454261742210062        0.0000000000000000     
   1.2797776077300769        3.1832090318537207        0.0000000000000000     
   1.3075896784376284        3.2281709041763635        0.0000000000000000     
   1.4149079317601747        3.2519298164843682        0.0000000000000000     
   1.1371984467549823        3.3779895864469291        0.0000000000000000     
   1.2398219828969410        3.3748882571424459        0.0000000000000000     
   1.1036735000385580        3.5077192941073378        0.0000000000000000     
   1.1893783716175343        3.3032802126324849        0.0000000000000000     
   1.2418657641828530        3.3065525274958207        0.0000000000000000     
   1.1929604431691541        3.4477315524508971        0.0000000000000000     
   1.2439626972553617        3.4417740714361655        0.0000000000000000     
   1.1851262931924642        3.5052898492235269        0.0000000000000000     
   1.3758677908455572        3.3751837657031682        0.0000000000000000     
   1.4975876777749728        3.3751907856979142        0.0000000000000000     
   1.3705571339406373        3.5167599379677132        0.0000000000000000     
   1.3086512418426421        3.3061595735585847        0.0000000000000000     
   1.3735462864560404        3.3076604094713509        0.0000000000000000     
   1.3092203935354740        3.3746136188527558        0.0000000000000000     
   1.4449577337797777        3.3027319690654560        0.0000000000000000     
   1.4980276261906555        3.3293346812758817        0.0000000000000000     
   1.4399104127447382        3.3754599346644341        0.0000000000000000     
   1.3092263810060765        3.4419415399093043        0.0000000000000000     
   1.3739957131770368        3.4435676596590188        0.0000000000000000     
   1.3068141130814523        3.5073614145507523        0.0000000000000000     
   1.4462164542653011        3.4492777336105074        0.0000000000000000     
   1.4974988908992573        3.4210301982896776        0.0000000000000000     
   1.4203021914958793        3.5028551128102250        0.0000000000000000     
   1.7482006790842917        3.2453966136155605        0.0000000000000000     
   2.0055969524493724        3.2584527014451869        0.0000000000000000     
   1.7467294850747708        3.4965941577973161        0.0000000000000000     
   1.6150224721599848        3.2515307974049454        0.0000000000000000     
   1.5732920389060459        3.2575274090608395        0.0000000000000000     
   1.7028437818647142        3.1918616196071690        0.0000000000000000     
   1.7435177874445720        3.1880443306584922        0.0000000000000000     
   1.6792697319452132        3.2345187926107100        0.0000000000000000     
   1.8937840858063333        3.1586184773855024        0.0000000000000000     
   2.0052985942850570        3.1404110007199000        0.0000000000000000     
   1.8962578343903436        3.2566054385767393        0.0000000000000000     
   1.8073176298820781        3.1767504806252562        0.0000000000000000     
   1.8133358699716393        3.2496920569331667        0.0000000000000000     
   1.6187661839342720        3.3743981355474402        0.0000000000000000     
   1.7564468971856531        3.3741080847375939        0.0000000000000000     
   1.6102336209332677        3.5037690946344449        0.0000000000000000     
   1.5484773459294492        3.3046589669083892        0.0000000000000000     
   1.6194345150582861        3.3100496236974841        0.0000000000000000     
   1.5548201268036264        3.3748286459938219        0.0000000000000000     
   1.6847985380507047        3.3085020275499786        0.0000000000000000     
   1.7523424389009399        3.3084643013000239        0.0000000000000000     
   1.6863371027177387        3.3739643083718680        0.0000000000000000     
   1.5446029068419092        3.4449373415617353        0.0000000000000000     
   1.6173899297787488        3.4385389954618040        0.0000000000000000     
   1.5614252136393338        3.4910432499131270        0.0000000000000000     
   1.6846316450284862        3.4375322912536865        0.0000000000000000     
   1.7518382041409575        3.4377619867714833        0.0000000000000000     
   1.6830009886507618        3.4973894722146031        0.0000000000000000     
   1.8573653297122905        3.3753314760753619        0.0000000000000000     
   2.0014629898168996        3.3788819498770080        0.0000000000000000     
   1.8881604983283735        3.4948977170915549        0.0000000000000000     
   1.8052537964594395        3.3048710776611547        0.0000000000000000     
   1.8033022146892603        3.4434465403785368        0.0000000000000000     
   1.8082411595712344        3.4954704418195481        0.0000000000000000     
   2.2507963719112030        3.2542661388991778        0.0000000000000000     
   2.5249561034746413        3.2577262405867500        0.0000000000000000     
   2.2669850285546769        3.5335905632091142        0.0000000000000000     
   2.1299877485611409        3.1321541357983134        0.0000000000000000     
   2.2579809127523682        3.1317173764480137        0.0000000000000000     
   2.1290536199103398        3.2560198569510108        0.0000000000000000     
   2.3580245239675333        3.1422298163708167        0.0000000000000000     
   2.3700253068583463        3.2535475912149345        0.0000000000000000     
   2.1291296434709124        3.3829143132058244        0.0000000000000000     
   2.2591565926749149        3.3820418220101320        0.0000000000000000     
   2.1247486847474804        3.5133112337417010        0.0000000000000000     
   2.3605519461400344        3.3668165322358372        0.0000000000000000     
   2.7459255528333326        3.2607411381273614        0.0000000000000000     
   2.7355268737373231        3.5559515946335636        0.0000000000000000     
  0.17946819560021074        3.9433453465247656        0.0000000000000000     
  0.41363880215694604        3.8903183544129156        0.0000000000000000     
  0.71648366577501366        3.7759049264220845        0.0000000000000000     
  0.88681197570083159        3.7822763288393046        0.0000000000000000     
  0.85677952929186763        3.6419626889034897        0.0000000000000000     
  0.97439865554627014        3.6746312206736116        0.0000000000000000     
   1.1275517027313091        3.6210923187909612        0.0000000000000000     
   1.1988122252423483        3.6363701727456244        0.0000000000000000     
   1.1855323318617150        3.5623519613187016        0.0000000000000000     
   1.2402230323428232        3.5848839137867907        0.0000000000000000     
   1.3076320413078470        3.5668258354840967        0.0000000000000000     
   1.3458104884488729        3.5601317725510238        0.0000000000000000     
   2.0140682276055246        3.7167169623367666        0.0000000000000000     
   1.7481248015000161        3.6001538480228734        0.0000000000000000     
   1.6297186278173696        3.5435723722877617        0.0000000000000000     
   1.6789580565321447        3.5563723673158272        0.0000000000000000     
   1.7502807753621665        3.5506045777264048        0.0000000000000000     
   1.7007295845076722        3.5934426067936780        0.0000000000000000     
   1.8557566477714378        3.6057884260773752        0.0000000000000000     
   2.0082753795990840        3.6096383220608392        0.0000000000000000     
   1.9110091438026882        3.6928150412299523        0.0000000000000000     
   1.8017509500698301        3.5460954169380257        0.0000000000000000     
   2.2153203432199544        3.7413907594956632        0.0000000000000000     
   2.4616554781958531        3.7765045146841563        0.0000000000000000     
   2.3167327257077215        3.9136115985255548        0.0000000000000000     
   2.1091967187453236        3.6094992921461686        0.0000000000000000     
   2.6996791471670787        3.9387180349626520        0.0000000000000000     
   2.5571284021233365        4.0437037133701850        0.0000000000000000     
   2.1862419330769867       0.59597418584635753        0.0000000000000000     
   2.2500000000000000       0.80000000000000004        0.0000000000000000     
   2.3840362350747362       0.83574299601992974        0.0000000000000000     
   2.4846910614717657       0.86258428305913759        0.0000000000000000     
   2.5505786458685282       0.88015430556494090        0.0000000000000000     
   2.6503825080614583       0.90676866881638896        0.0000000000000000     
   2.7546842700025236       0.93458247200067301        0.0000000000000000     
   2.8773421350012618       0.96729123600033651        0.0000000000000000     
   3.0000000000000000        1.0000000000000000        0.0000000000000000     
   3.0000000000000000        1.2500000070287669        0.0000000000000000     
   3.0000000000000000        1.5000000140575340        0.0000000000000000     
   3.0000000000000000        1.7499999758878118        0.0000000000000000     
   3.0000000000000000        2.0000000241121914        0.0000000000000000     