 VARIABLES = "X", "Y", "Z"
 ZONE F=FEPOINT, ET=BRICK, N=        1794 E=        1400
   3.0059831663921028      -0.67223988247479860       0.47241222096194940     
   3.0109628018804200      -0.69271206029446242       0.29315125008000037     
   3.0177673623415737      -0.71079166504758595        3.8299976734665092E-002
   3.0239944715876685      -0.70511745283297689      -0.21714354890648646     
   3.0281911097249390      -0.69338055444606783      -0.39720757707725329     
   2.9926205634598104      -0.39765080425850696       0.73379706388461186     
   2.9993621534153618      -0.48701506472088812       0.55275619283958910     
   3.0056293154576306      -0.46728724312867514       0.28165254041350374     
   3.0119573441867038      -0.47179335210606249        3.2341456124966007E-002
   3.0183609167021452      -0.47940698791785130      -0.21689216213412008     
   3.0259068989678797      -0.51228412046707594      -0.48668433168896236     
   3.0285201059324152      -0.43182508323972291      -0.67195908413487204     
   2.9878416617880386      -0.21759409730293597       0.74542207348797407     
   2.9934591904933132      -0.21720247752254421       0.51971141201094173     
   2.9996922494141458      -0.22458630078848529       0.27708728043333675     
   3.0060542977414455      -0.22896829770243876        2.6287558206484790E-002
   3.0124996787714511      -0.23677822950795405      -0.22442670332000672     
   3.0186605534303559      -0.24119271100443054      -0.46712486636668338     
   3.0245637300612942      -0.25255137299061525      -0.69254258261245172     
   2.9813356637836561        3.7845917801606663E-002  0.75093759818355010     
   2.9874389974603544        3.2035899105740805E-002  0.51194294077742486     
   2.9936400552551845        2.6132851844946625E-002  0.26912159816112047     
   2.9999999999643374        2.0078553636968709E-002   2.0078553339171506E-002
   3.0063599446564915        1.4024256240781057E-002 -0.22896449161275476     
   3.0125610024317773        8.1212100725321038E-003 -0.47178583453767159     
   3.0186643361386043        2.3111905193606667E-003 -0.71078049229497220     
   2.9754362699289696       0.29270848523871429       0.73269968184629874     
   2.9813394465314906       0.28134982471257985       0.50728196528029468     
   2.9875003211430120       0.27693533975072004       0.26458380759955130     
   2.9939457021017906       0.26912540585755779        1.3869551017613784E-002
   3.0003077502582318       0.26474341202071616      -0.23693016743321452     
   3.0065408089951990       0.25735959316533003      -0.47955429604655170     
   3.0121583378059582       0.25775121117067962      -0.70526495997950378     
   2.9714798940844727       0.47198221325174500       0.71211616453690096     
   2.9740931009658391       0.55244125661407595       0.52684140929192935     
   2.9816390829889046       0.51956410190056146       0.25704927163482599     
   2.9880426553023467       0.51195046169301939        7.8156658736715269E-003
   2.9943706837600854       0.50744435904602192      -0.24149541386201903     
   3.0006378446228203       0.52717220861543257      -0.51259904695420366     
   3.0073794350349550       0.43780794049183253      -0.69363992865157309     
   2.9718088901295188       0.73353768462277724       0.43736466382966077     
   2.9760055275256110       0.74527456597025021       0.25730068242697851     
   2.9822326360783067       0.75094877489181766        1.8571878911019558E-003
   2.9890371968365925       0.73286917505138094      -0.25299410228488461     
   2.9940168319402325       0.71239701887281215      -0.43225507937853208     
   2.9991327083049235      -0.66942047322909515       0.74436464331130925     
   3.0066452862346140      -0.80761089413830256       0.58122560982899141     
   3.0150779692805307      -0.92140900705732232       0.35678885782364272     
   3.0242951437053187      -0.97931572785159815        4.4994769328965685E-002
   3.0310669306035032      -0.93662956942279296      -0.26930771978988383     
   3.0342352433076787      -0.83387493054496331      -0.49914336167705536     
   3.0352258138682182      -0.70377901304245716      -0.66897105824891612     
   3.0346041947898268      -0.54055445946314229      -0.80726247443064436     
   3.0318475268830660      -0.31604697381196667      -0.92120002735606199     
   3.0255216731462706       -4.2165974840829255E-003 -0.97930044934486449     
   3.0166269645175947       0.31005917947364259      -0.93680951810542168     
   3.0083401583831657       0.53983103546655875      -0.83419763119335821     
   3.0008672813995165       0.70957779033901924      -0.70420733637496791     
   2.9933547137653860       0.84776799968401151      -0.54106850428328246     
   2.9849220307194693       0.96156611260303126      -0.31663175227793383     
   2.9757048491340692        1.0194728402138258       -4.8373833876704624E-003
   2.9689330693964968       0.97678667496850236       0.30946482533559183     
   2.9657647566923213       0.87403203609067215       0.53930046722276492     
   2.9647741863438739       0.74393628720491045       0.70912798667085541     
   2.9653958052101732       0.58071156500885202       0.84741957997635287     
   2.9681524731169340       0.35620407935767656       0.96135713290177083     
   2.9744783268647867        4.4373702574949242E-002   1.0194575549019134     
   2.9833730354824053      -0.26990207392793403       0.97696662365113052     
   2.9916598416168343      -0.49967392992084997       0.87435473673906705     
   3.3285945362974294      -0.64160713442035078       0.46870540591329463     
   3.3357475477879333      -0.66139328653893825       0.29489412452429054     
   3.3455219779205518      -0.67883230756674628        4.7786584962037207E-002
   3.3544669266210021      -0.67323845924698988      -0.19990377243829419     
   3.3604951993505643      -0.66179310676153447      -0.37450531871378429     
   3.3093997874966430      -0.37544856225216738       0.72205586984665782     
   3.3190837634682699      -0.46203460803579632       0.54654351179786664     
   3.3280862461211416      -0.44280818062392119       0.28366340941199225     
   3.3371761608985380      -0.44708778750660805        4.1922976477489597E-002
   3.3463745907616658      -0.45438060525771040      -0.19974122424749108     
   3.3572140383438374      -0.48616252890182565      -0.46133073378705558     
   3.3609677868839150      -0.40807955199687540      -0.64100953286516993     
   3.3025351206650302      -0.20086252011240746       0.73326316555477533     
   3.3106044356723916      -0.20040158321841808       0.51440488962906317     
   3.3195579307999576      -0.20747394345593914       0.27914943032922818     
   3.3286967131255079      -0.21163267070541916        3.5965509526236672E-002
   3.3379551989477076      -0.21911529223808668      -0.20713431183577777     
   3.3468050047879325      -0.22330843263939198      -0.44246262334077735     
   3.3552846395665510      -0.23424114691697528      -0.66103262025015652     
   3.2931895614184294        4.6820407465928596E-002  0.73851933743641374     
   3.3019567123519122        4.1272765616005284E-002  0.50678259603753883     
   3.3108642393714627        3.5636296300068010E-002  0.27133538022675663     
   3.3199999999487728        2.9855406438389052E-002   2.9855406149525764E-002
   3.3291357605016647        2.4074517363901336E-002 -0.21162456805402835     
   3.3380432874931403        1.8438049107450893E-002 -0.44707178416444671     
   3.3468104384699018        1.2890406426375959E-002 -0.67880852590352692     
   3.2847153604194639       0.29395196461957884       0.72074342532893576     
   3.2931949951572621       0.28301925175783438       0.50217342810851773     
   3.3020448009294232       0.27882610799442342       0.26684512180778974     
   3.3113032866493084       0.27134348443571049        2.3745305240964808E-002
   3.3204420687294287       0.26718476016856335      -0.21943861190174935     
   3.3293955635928811       0.26011240420662723      -0.45469406832889803     
   3.3374648787517658       0.26057333938034793      -0.67355234663532992     
   3.2790322131403440       0.46779038693086861       0.70072031967746995     
   3.2827859615609527       0.54587336978554757       0.52104151788306530     
   3.2936254087945422       0.51409142463856894       0.25945203928080546     
   3.3028238383675075       0.50679860262067078        1.7787850675903466E-002
   3.3119137527551445       0.50251900187454646      -0.22395257784625305     
   3.3209162337136715       0.52174545640728187      -0.48683266149526516     
   3.3306002103411587       0.43515940319885948      -0.66234502987024391     
   3.2795048004403720       0.72150394185293043       0.43421611168360730     
   3.2855330721052662       0.73294927779943697       0.25961461076246345     
   3.2944780198096817       0.73854312291493673        1.1924283524242459E-002
   3.3042524503691162       0.72110410665672275      -0.23518327235945474     
   3.3114054613070496       0.70131797552444641      -0.40899455977935756     
   3.3187541763900081      -0.63897116537643883       0.73240039766775344     
   3.3295456402191292      -0.77290746078265804       0.57426394806561709     
   3.3416587916465250      -0.88316993954064282       0.35668198939389312     
   3.3548988279353593      -0.93920644706120393        5.4374735203942981E-002
   3.3646261803906952      -0.89770315075287066      -0.25040095660894890     
   3.3691773121415327      -0.79798542959999730      -0.47329580779812674     
   3.3706002200267218      -0.67177809484864615      -0.63801437869891131     
   3.3697072935422665      -0.51345924836760171      -0.77216602288607861     
   3.3657474701257084      -0.29572676834353595      -0.88272523028130823     
   3.3566606796221254        6.6574092561170056E-003 -0.93917392704884106     
   3.3438838502387553       0.31137655471035003      -0.89808608194134221     
   3.3319802441137250       0.53413566937765788      -0.79867213728246156     
   3.3212458088209060       0.69868218164657958      -0.67268939126598781     
   3.3104543597808713       0.83261827198408389      -0.51455313686419124     
   3.2983412083534756       0.94288075074206867      -0.29697117819246743     
   3.2851011617787593       0.99891726477131904        5.3363478778677767E-003
   3.2753738196093054       0.95741396195429695       0.31011176781037375     
   3.2708226878584679       0.85769624080142304       0.53300661899955304     
   3.2693997802779391       0.73148906961137472       0.69772501809334131     
   3.2702927064577341       0.57317005956902822       0.83187683408750412     
   3.2742525298742922       0.35543757954496258       0.94243604148273408     
   3.2833393203937589        5.3053401504270986E-002  0.99888473826142621     
   3.2961161497612452      -0.25166574350892462       0.95779689314276795     
   3.3080197558862756      -0.47442485817623226       0.85838294848388730     
   3.6522844961041607      -0.60619255058906307       0.46978042664148012     
   3.6625085662281540      -0.62521610850075782       0.30149540325123725     
   3.6764795292596859      -0.64190991665349217        6.2236226621823820E-002
   3.6892648830774917      -0.63630068215779578      -0.17760521246689467     
   3.6978813215098110      -0.62508234669163432      -0.34667974796494866     
   3.6248487149632811      -0.34866995222716862       0.71489104382736324     
   3.6386903884380706      -0.43237412243740087       0.54501085966944796     
   3.6515579777122080      -0.41355272327016174       0.29045067325948659     
   3.6645505370319564      -0.41750852621633960        5.6378193520827243E-002
   3.6776982010719346      -0.42438206247895155      -0.17761812624224413     
   3.6931914338638281      -0.45495274772375877      -0.43088894627233204     
   3.6985568087625742      -0.37920564961524750      -0.60493161045668742     
   3.6150367867764706      -0.17962805686014399       0.72560714368331169     
   3.6265705642067698      -0.17901142589176292       0.51368763026971398     
   3.6393681337564052      -0.18567648154592425       0.28589668480258845     
   3.6524305413127709      -0.18951411419264050        5.0426390361747654E-002
   3.6656640456086653      -0.19657031916324647      -0.18495988454657597     
   3.6783134081344069      -0.20044738684328856      -0.41282361288380631     
   3.6904336711477597      -0.21086338423543766      -0.62445512127996394     
   3.6016788251386309        6.0197744836325076E-002  0.73050392439535194     
   3.6142100458769946        5.5006326689452587E-002  0.50611894586083583     
   3.6269419114695700        4.9731784813519982E-002  0.27814120635072342     
   3.6399999999267778        4.4322095890508811E-002   4.4322095610579440E-002
   3.6530580883490846        3.8912407729828499E-002 -0.18949701525249518     
   3.6657899539015317        3.3637866880023792E-002 -0.41747475505356779     
   3.6783211747017548        2.8446447928616898E-002 -0.64185973391685602     
   3.5895663288322499       0.29950758069489170       0.71309930550602119     
   3.6016865917872569       0.28909158467393298       0.50146779680758480     
   3.6143359542157119       0.28521451373433421       0.27360407351223565     
   3.6275694583653642       0.27815830679818926        3.8217803248641824E-002
   3.6406318655709278       0.27432067703639973      -0.19725248765029518     
   3.6534294347430549       0.26765562552002620      -0.42504343033914277     
   3.6649632123899329       0.26827225482453404      -0.63696294605663850     
   3.5814431912720992       0.46784986277396701       0.69357577698201378     
   3.5868085660000837       0.54359696664567858       0.51953311016286075     
   3.6023017982937353       0.51302626055570355       0.26626232010591211     
   3.6154494619189732       0.50615272015214752        3.2266012081960380E-002
   3.6284420206816241       0.50219692314453268      -0.20180646338902589     
   3.6413096075339699       0.52101834855815754      -0.45636663167730068     
   3.6551512819462060       0.43731417116657784      -0.62624682582822344     
   3.5821186781913648       0.71372655999797463       0.43532392045244483     
   3.5907351151019142       0.72494487941427765       0.26624942888360220     
   3.6035204674960495       0.73055411078384058        2.6408019003167582E-002
   3.6174914311376458       0.71386030726217620      -0.21285117343391358     
   3.6277155004718287       0.69483676967609354      -0.38113620268017023     
   3.6382192971495155      -0.60384535663362704       0.72511265291435323     
   3.6536439449465923      -0.73341201067866857       0.57209430305058806     
   3.6709577308646844      -0.84000919157987919       0.36149680140822782     
   3.6898822159771383      -0.89403375953466846        6.8818107815061591E-002
   3.7037858891022508      -0.85360920013408492      -0.22632666147915037     
   3.7102909940116819      -0.75687967969258596      -0.44223200495675252     
   3.7123248101208084      -0.63454569635509517      -0.60182621884916643     
   3.7110485164919282      -0.48114211519081534      -0.73184764926026724     
   3.7053885909705908      -0.27022702822224615      -0.83907089855369554     
   3.6924004972936828        2.2613682250761102E-002 -0.89396513849837367     
   3.6741380913474200       0.31763942824911490      -0.85441714747520559     
   3.6571238164630215       0.53325838094623312      -0.75832856571408913     
   3.6417806817118827       0.69248974520817230      -0.63646827390297567     
   3.6263560550534071       0.82205620083830688      -0.48345011289094980     
   3.6090422691353150       0.92865338173951750      -0.27285261124858978     
   3.5901177693208615       0.98267795578506278        1.9826345599656330E-002
   3.5762141108977485       0.94225339029372368       0.31497085163878763     
   3.5697090059883174       0.84552386985222416       0.53087619511639128     
   3.5676751903146537       0.72319004502385575       0.69047024252184386     
   3.5689514835080711       0.56978630535045438       0.82049183941990511     
   3.5746114090294085       0.35887121838188513       0.92771508871333375     
   3.5875995027290193        6.6030507481814146E-002  0.98260932866916051     
   3.6058619086525794      -0.22899523808947714       0.94306133763484379     
   3.6228761835369778      -0.44461419078659509       0.84697275587372733     
   3.9774265160198192      -0.56373673200875607       0.47789668211868475     
   3.9919301570558705      -0.58184272083360922       0.31529289160715190     
   4.0117490579710511      -0.59757954640582756        8.4093847616020956E-002
   4.0298860797288727      -0.59176112731057029      -0.14770487473746388     
   4.0421091698012237      -0.58063920221728504      -0.31112179281166386     
   3.9385067202452215      -0.31526597479727542       0.71435158521296294     
   3.9581422138384688      -0.39587845947985273       0.55031338490018200     
   3.9763958930061678      -0.37726704362124996       0.30426815940213287     
   3.9948268519323022      -0.38070210341821920        7.8060572072016818E-002
   4.0134778390035803      -0.38695706792618517      -0.14806857646298968     
   4.0354561983239323      -0.41608167073571611      -0.39278586294763274     
   4.0430674011630678      -0.34258912389745000      -0.56111106471203565     
   3.9245877346976696      -0.15191695389894044       0.72442776152078792     
   3.9409492977161205      -0.15096980163462675       0.51962183784084548     
   3.9591036484424746      -0.15703356911762634       0.29948938979423173     
   3.9776336925410121      -0.16035210920006837        7.1930719677052071E-002
   3.9964064507115831      -0.16678130618908149      -0.15554141735804947     
   4.0143505582131249      -0.17015056405929568      -0.37574882543894583     
   4.0315440967820431      -0.17986612748634839      -0.58025812824221967     
   3.9056384240788087        7.9849243990913504E-002  0.72876267313848198     
   3.9234149382388819        7.5203995860642914E-002  0.51191940378187550     
   3.9414760827766742        7.0484369082057380E-002  0.29160412822977566     
   3.9599999998961293        6.5643813590984770E-002   6.5643813319989308E-002
   3.9785239169660742        6.0803258836853599E-002 -0.16031650170986400     
   3.9965850614469418        5.6083633050428801E-002 -0.38063177754485666     
   4.0143615756947675        5.1438384143178681E-002 -0.59747504721786426     
   3.8884559031895995       0.31115375920128208       0.71154574811418403     
   3.9056494416757492       0.30143819709988667       0.50703644501650724     
   3.9235935490392824       0.29806893607119056       0.28682904181362689     
   3.9423663070023984       0.29163973717492797        5.9356909270578795E-002
   3.9608963506032957       0.28832119987468907      -0.16820175742838794     
   3.9790507007941254       0.28225743638595790      -0.38833420279685460     
   3.9954122641198087       0.28320458704607665      -0.59314012870059041     
   3.8769325988861199       0.47387677178035365       0.69239866744984591     
   3.8845438014830163       0.54736932419270301       0.52407346312954983     
   3.9065221600965736       0.51824470118814769       0.27935620564632824     
   3.9251731465795103       0.51198973265880254        5.3227068463195887E-002
   3.9436041047153583       0.50855467859395254      -0.17298051475236467     
   3.9618577804475574       0.52716611978775751      -0.41902572278061168     
   3.9814932753706458       0.44655362818148836      -0.58306393273901080     
   3.8778908297748718       0.71192685023297209       0.44240940131123585     
   3.8901139176884727       0.72304875974242311       0.27899252571804556     
   3.9082509374267072       0.72886717576808979        4.7193831597438306E-002
   3.9280698392073119       0.71313035469766484      -0.18400522767833694     
   3.9425734791229559       0.69502438552575296      -0.34660902388297060     
   3.9574739340964920      -0.56189151126084447       0.72465294479092401     
   3.9793550002514784      -0.68685471950952559       0.57698649910071231     
   4.0039159562001032      -0.78952416285415827       0.37363589418751991     
   4.0307618146042827      -0.84124993681310745        9.0872615621205827E-002
   4.0504852595380179      -0.80169336458486673      -0.19443048141891939     
   4.0597132583060258      -0.70785344147661888      -0.40324771380682273     
   4.0625983851119249      -0.58936198128171036      -0.55768674241958793     
   4.0607878630375076      -0.44089301129641206      -0.68359730491683912     
   4.0527588171627515      -0.23688110966249543      -0.78757038838762194     
   4.0343341930993457        4.6219262160692512E-002 -0.84110704303261863     
   4.0084275456402612       0.33127478996710841      -0.80337572482984010     
   3.9842914694573603       0.53949568093634270      -0.71087040572418236     
   3.9625260359167531       0.69317932831831053      -0.59336513699141791     
   3.9406449997485216       0.81814234512630857      -0.44569887348392939     
   3.9160840437998967       0.92081178847094103      -0.24234826857073732     
   3.8892381645397833       0.97253756787986245        4.0415264402500775E-002
   3.8695147404619816       0.93298099020164993       0.32571810703570120     
   3.8602867416939737       0.83914106709340164       0.53453533942360598     
   3.8574016155058137       0.72064976036203565       0.68897420687604538     
   3.8592121369624928       0.57218063691319565       0.81488493053362143     
   3.8672411828372484       0.36816873527927896       0.91885801400440470     
   3.8856658069328600        8.5068363043346279E-002  0.97239466866088375     
   3.9115724543597388      -0.19998716435032610       0.93466335044662285     
   3.9357085305426396      -0.40820805531956011       0.84215803134096490     
   4.3044324546857036      -0.51099744019294124       0.49629641083139703     
   4.3247669582656503      -0.52788406922378217       0.33967564390574512     
   4.3525536023647851      -0.54225152196756843       0.11694912280081246     
   4.3779822056339412      -0.53584652444394143      -0.10642948898862982     
   4.3951193140480571      -0.52456667255484646      -0.26393445247028974     
   4.2498658307226460      -0.27238836440995107       0.72328575955599395     
   4.2773953327127625      -0.34950058964316483       0.56549811701005548     
   4.3029874928786240      -0.33071933586549462       0.32834767365162287     
   4.3288282041409722      -0.33325014246123941       0.11038848878206574     
   4.3549774009135440      -0.33849844683291214      -0.10748540014322865     
   4.3857916650814301      -0.36571964310591121      -0.34319182898117123     
   4.3964627807685437      -0.29432327418312165      -0.50564119497085291     
   4.2303510302154912      -0.11502184321862040       0.73243238707738079     
   4.2532903915072673      -0.11340371944580437       0.53508050334366319     
   4.2787432904668501      -0.11848844434891727       0.32298430712628612     
   4.3047229218657304      -0.12090232005801287       0.10372283314183983     
   4.3310428450681933      -0.12631388687961381      -0.11544454383422016     
   4.3562009772449395      -0.12880195525699639      -0.32762225197577893     
   4.3803067911376434      -0.13745932281967610      -0.52465158728689243     
   4.2037835756253674       0.10829045498830368       0.73581113372441398     
   4.2287067373285883       0.10456126928758597       0.52687946595866797     
   4.2540289586486537       0.10077237258748402       0.31460246934571706     
   4.2799999998543710        9.6886394847687268E-002   9.6886394585625729E-002
   4.3059710409906726        9.3000417818412354E-002 -0.12082968029269921     
   4.3312932622309281        8.9211522075319474E-002 -0.33310667718165987     
   4.3562164240571812        8.5482335627003067E-002 -0.54203834524960992     
   4.1796932088225995       0.33123211690627513       0.71842436992094960     
   4.2037990225992585       0.32257475062199759       0.52139503432158663     
   4.2289571545825133       0.32008667918433575       0.30921733089130721     
   4.2552770774941191       0.31467511050945834        9.0049958250307524E-002
   4.2812567081952935       0.31226123746948742      -0.12921151244997170     
   4.3067096064040564       0.30717651640598048      -0.34130770610047562     
   4.3296489681265813       0.30879463864067264      -0.53865959197148872     
   4.1635372193004176       0.48809608390800874       0.69941396103894626     
   4.1742083346479077       0.55949245821072424       0.53696459256723561     
   4.2050225978248479       0.53227124237813705       0.30125819174428969     
   4.2311717937725488       0.52702293409240786        8.3384313771381724E-002
   4.2570125039268927       0.52449213300589437      -0.13457486715318157     
   4.2826046592760898       0.54327341113609751      -0.37172529376518249     
   4.3101341631306793       0.46616117926451883      -0.52951294558167827     
   4.1648806853576179       0.71833948238783563       0.45770722408989289     
   4.1820177907451068       0.72961931911420108       0.30020230159612171     
   4.2074463911827475       0.73602431358275733        7.6823717022127314E-002
   4.2352330364952291       0.72165686522949535      -0.14590281882641848     
   4.2555675385043346       0.70477025515561176      -0.30252359130557160     
   4.2764583861369445      -0.51006936452515872       0.73406153803039753     
   4.3071362426114437      -0.62997382734532859       0.59220229614589037     
   4.3415713782730894      -0.72820447054943604       0.39660965054581315     
   4.3792100100118097      -0.77707284384458752       0.12432039367430893     
   4.4068628221999369      -0.73797385478188871      -0.15073062710492874     
   4.4198007302409161      -0.64683151348009815      -0.35226773287633922     
   4.4238457573632308      -0.53212254291916061      -0.50149154270084428     
   4.4213073556258813      -0.38862585732440713      -0.62332891049580919     
   4.4100504125122200      -0.19168420882738851      -0.72421889594619215     
   4.3842185829016254        8.1292446109327024E-002 -0.77678134352816075     
   4.3478967507360524       0.35583869208884145      -0.74140576178073525     
   4.3140573081900655       0.55615929961348887      -0.65298592704723846     
   4.2835415718208010       0.70384233655835926      -0.54028857494994964     
   4.2528637573885568       0.82374661553603179      -0.39842950795518717     
   4.2184286217269120       0.92197725874013914      -0.20283686235511017     
   4.1807899607475978       0.97084563641051014        6.9452639641193345E-002
   4.1531371778000636       0.93174664297259224       0.34450341529563089     
   4.1401992697590844       0.84060430167080114       0.54604052106704282     
   4.1361542435028555       0.72589547954068023       0.69526417507071181     
   4.1386926443741201       0.58239864551511100       0.81710169868651195     
   4.1499495874877796       0.38545699701809233       0.91799168413689525     
   4.1757814171435275       0.11248034168362120       0.97055413173134963     
   4.2121032492639481      -0.16206590389813880       0.93517854997143812     
   4.2459426918099350      -0.36238651142278594       0.84675871523794155     
   4.6336277548462164      -0.44344769079167651       0.52950659712955928     
   4.6616152702269815      -0.45856414972975984       0.37941966408853356     
   4.6998595836938364      -0.47080955969783961       0.16591833581707377     
   4.7348583935889907      -0.46312918716380230       -4.8351368826285407E-002
   4.7584451550477214      -0.45122720753255557      -0.19948017676906321     
   4.5585246562415103      -0.21617836834232290       0.74555231957932855     
   4.5964150506317134      -0.28904462950860688       0.59476093941779917     
   4.6316389730379344      -0.26940031088694949       0.36719850512390267     
   4.6672049902294281      -0.27032690473565429       0.15818768226072003     
   4.7031955932942964      -0.27386023333256138       -5.0722631416389830E-002
   4.7456069897149167      -0.29834334254755940      -0.27658352208616277     
   4.7602942434877384      -0.22875409799160890      -0.43286799875248566     
   4.5316653440778643       -6.5322953472612910E-002  0.75324079169966107     
   4.5632380709189393       -6.2412488881910061E-002  0.56396431722155316     
   4.5982703203326345       -6.5828716514258645E-002  0.36059382752429014     
   4.6340275410832712       -6.6634205308867461E-002  0.15033327221371756     
   4.6702531244890020       -7.0315201777174319E-002  -5.9816404517419125E-002
   4.7048796698816506       -7.1240610457859038E-002 -0.26328294251577405     
   4.7380578507226732       -7.8186816594477265E-002 -0.45217934477303839     
   4.4950990693691901       0.14881579986593799       0.75494372819059019     
   4.5294022117480415       0.14667778204248941       0.55459876746342096     
   4.5642546022125616       0.14450553038483183       0.35104596475357963     
   4.5999999997995618       0.14227762025083360       0.14227761999770600     
   4.6357453972910214       0.14004971079905726       -6.6490724876448221E-002
   4.6705977876456943       0.13787746006109525      -0.27004352785757801     
   4.7049009301938831       0.13573944152276146      -0.47038848886942158     
   4.4619421492226046       0.36274206135244175       0.73673457846888879     
   4.4951203299039095       0.35579585644382716       0.54783817592638484     
   4.5297468750302459       0.35487044479582486       0.34437164246733143     
   4.5659724580356524       0.35118944652033579       0.13422196990638330     
   4.6017296778259968       0.35038396026287416       -7.6038582272966976E-002
   4.6367619262062973       0.34696773629513122      -0.27940906953496847     
   4.6683346536402350       0.34987819942544918      -0.46868554605220653     