 VARIABLES = "X", "Y", "Z"
 ZONE F=FEPOINT, ET=QUADRILATERAL, N=         158 E=         129
  -1.8557765899052778       0.42693197893541351        0.0000000000000000     
 -0.33240060017579981       0.44190893654133367        0.0000000000000000     
  -2.0175787341816083        2.2157933324655219        0.0000000000000000     
   8.6878841222648606E-002   1.3277734428661219        0.0000000000000000     
   1.0427069560568367        1.7126246755257561        0.0000000000000000     
   2.4877401428253592        1.9217659699119318        0.0000000000000000     
   3.9904795692330035        1.7975486097174176        0.0000000000000000     
   5.5401727865146313        2.0068967838529890        0.0000000000000000     
   6.9880571403017511        2.0939514846653089        0.0000000000000000     
   8.4317611791356342        2.0419666783954216        0.0000000000000000     
  -1.8370482577249658        3.5131561610584492        0.0000000000000000     
 -0.76308809104009889        3.4142158843171968        0.0000000000000000     
  0.92516095735908654        3.3353635490617735        0.0000000000000000     
   2.5263007649268823        3.4912391648018435        0.0000000000000000     
   3.9940471556832251        3.2672267118020231        0.0000000000000000     
   5.4581250686346312        3.5110323882477359        0.0000000000000000     
   6.9851123121967937        3.4641805968791388        0.0000000000000000     
   8.4945718171665039        3.5791502743207029        0.0000000000000000     
   9.8989194009591035        3.4933578832321071        0.0000000000000000     
  -1.4571036258840542        4.5922878670052087        0.0000000000000000     
 -0.32389943046690067        4.5919410678996950        0.0000000000000000     
  0.84057779974360480        4.8316650411725606        0.0000000000000000     
   6.9488428123669017        4.9945210871498018        0.0000000000000000     
   8.4566138428375108        4.9395491857853457        0.0000000000000000     
   9.7349413558357902        4.8915231031763282        0.0000000000000000     
   7.1057999963171197        6.2125734957194396        0.0000000000000000     
   8.4792979763446024        6.2657820430952302        0.0000000000000000     
   9.9057506428375568        6.2235990277157196        0.0000000000000000     
  -1.7583163224814315       -6.8774632875627240E-002   0.0000000000000000     
  -1.2111514535378776      -0.17280222598827513        0.0000000000000000     
 -0.49581005053709121      -0.23025486056501543        0.0000000000000000     
  -1.0912415697922508       0.53067935375930630        0.0000000000000000     
   4.2384547502502132E-002 -0.21108900968246228        0.0000000000000000     
  0.30471426526642936       0.18146638034502932        0.0000000000000000     
  -1.9565964353670044        1.1887145230097600        0.0000000000000000     
  -1.0085831730647332        1.3677835727161849        0.0000000000000000     
   1.2825002587437568        1.0009862227403521        0.0000000000000000     
   1.8989283851126553        1.2252900781731528        0.0000000000000000     
   2.4999119027251893        1.3405962719776421        0.0000000000000000     
   1.7936525668581049        1.8826362395543488        0.0000000000000000     
   2.9227872321504749        1.3450443889544259        0.0000000000000000     
   3.2181759663740053        1.7405722807605704        0.0000000000000000     
   5.1015943154592396        1.3804290971513831        0.0000000000000000     
   5.5709592319066497        1.4607309337324430        0.0000000000000000     
   4.7811122196784366        1.7596252702414457        0.0000000000000000     
   6.2586794553866110        1.5055740771946635        0.0000000000000000     
   6.9874518966073556        1.5114696101021152        0.0000000000000000     
   6.2550063695524072        2.0763085062419875        0.0000000000000000     
   7.7173013856520374        1.4945112402013081        0.0000000000000000     
   8.4063105224923031        1.4810836542424513        0.0000000000000000     
   7.7213179541118890        2.0860619622195271        0.0000000000000000     
   8.8978610623384267        1.4891398596069996        0.0000000000000000     
   9.0771957772559571        1.8846810035726123        0.0000000000000000     
   4.4336301770264257E-002   2.4277047477987299        0.0000000000000000     
  0.93149642664791499        2.5272963817580547        0.0000000000000000     
  0.12385775283262745        3.3383961177973376        0.0000000000000000     
   1.7383763488177024        2.6233698502349183        0.0000000000000000     
   2.5042894868008618        2.6393665571332345        0.0000000000000000     
   1.7073217908184690        3.3828489181972379        0.0000000000000000     
   3.2536821541996357        2.5882756700264014        0.0000000000000000     
   3.9946005753042586        2.5587373024967306        0.0000000000000000     
   3.2982957591373983        3.3103105045880512        0.0000000000000000     
   4.7387755216662928        2.6035705940484846        0.0000000000000000     
   5.4906476687412020        2.6879591721977851        0.0000000000000000     
   4.6915799251819390        3.3174146111030329        0.0000000000000000     
   6.2417130232321130        2.7389735757601295        0.0000000000000000     
   6.9874274945757344        2.7559928773417459        0.0000000000000000     
   6.2473851397628977        3.4473017276009608        0.0000000000000000     
   7.7331713376502993        2.7653457706148914        0.0000000000000000     
   8.4921257502095653        2.7321426252125987        0.0000000000000000     
   7.7283224967719137        3.5324155980522431        0.0000000000000000     
   9.3713949855965755        2.5871542602654598        0.0000000000000000     
   10.048980831316012        2.8566060635867632        0.0000000000000000     
   9.2451594531951322        3.5158729071349173        0.0000000000000000     
   10.442580496228290        3.0067684646887045        0.0000000000000000     
   10.474475304510639        3.4930679925581738        0.0000000000000000     
  0.26611074086783570        3.9750614116686065        0.0000000000000000     
  0.88330746607072141        4.0678839924003007        0.0000000000000000     
   1.7390340826084885        4.1603045360344719        0.0000000000000000     
   2.2696446593443906        3.9850189742849529        0.0000000000000000     
   1.5061945856810901        4.7264675854001306        0.0000000000000000     
   5.7104454146159771        3.9904593388066001        0.0000000000000000     
   6.2022352243015533        4.1943146014577790        0.0000000000000000     
   7.0316360776842561        4.1824737992865373        0.0000000000000000     
   6.3589864127584761        4.7151851035405663        0.0000000000000000     
   7.6549628884294538        4.1432317788746849        0.0000000000000000     
   9.2512566559954639        4.1308695121908086        0.0000000000000000     
   9.7882643104211784        4.1816201140536773        0.0000000000000000     
   10.461804902809570        4.1835182702496390        0.0000000000000000     
   10.419504485418427        4.8735119180172095        0.0000000000000000     
   7.1080515350311231        5.7490539577311104        0.0000000000000000     
   7.6584023912486474        5.7427855108511245        0.0000000000000000     
   7.6156789353212941        6.4072073488322108        0.0000000000000000     
   9.3049802739315624        5.7158385628121868        0.0000000000000000     
   9.9524488962196820        5.6565769202054739        0.0000000000000000     
   9.3608691619139517        6.4119297364550594        0.0000000000000000     
   10.416183922600384        5.3557930599995904        0.0000000000000000     
   7.8562765791424809        7.0264478609292302        0.0000000000000000     
   8.4677974188441940        7.0573411743298555        0.0000000000000000     
   9.0905078923663112        7.0339770863627056        0.0000000000000000     
  -2.8754788193556506       0.74224040279412562        0.0000000000000000     
  -2.5700115668802521       0.14696836174490779        0.0000000000000000     
  -2.3160882813709405      -0.40575189478587881        0.0000000000000000     
  -1.3073735593427829      -0.96683240867846598        0.0000000000000000     
 -0.62585376395398762       -1.0591263196683514        0.0000000000000000     
  0.48637803723848777      -0.52052101335306533        0.0000000000000000     
  0.81490175322491121      -0.16759434812647866        0.0000000000000000     
   1.1711050488547656       0.13630904276162886        0.0000000000000000     
   1.5362162935736015       0.38534845858781724        0.0000000000000000     
   2.0056421668049427       0.64474160520788892        0.0000000000000000     
   2.5884442960046696       0.88615632000740252        0.0000000000000000     
   3.1843388194076603        1.0334636405046715        0.0000000000000000     
   3.4035358977997672        1.0594680710870896        0.0000000000000000     
   3.9622154916349595        1.0702623804241851        0.0000000000000000     
   4.5854107524967933        1.0278591687582423        0.0000000000000000     
   4.8203213071088644        1.0101829067168908        0.0000000000000000     
   5.4952097353289346       0.99314956984181169        0.0000000000000000     
   6.2461549683438893        1.0089345491336636        0.0000000000000000     
   6.9851952048463621        1.0007412985290540        0.0000000000000000     
   7.7254620220675818       0.94507889109900856        0.0000000000000000     
   8.4921749319440778       0.91611431952997158        0.0000000000000000     
   9.2254839954417331        1.1137652815771557        0.0000000000000000     
   9.6826107037553122        1.5968600788762830        0.0000000000000000     
   9.9790477298699827        1.9776572745270860        0.0000000000000000     
   10.305512994636731        2.2661798924889727        0.0000000000000000     
   10.766738682213763        2.6582050879673886        0.0000000000000000     
   11.112899882908662        3.3500205508497989        0.0000000000000000     
   11.149805226225062        4.2042298815885557        0.0000000000000000     
   11.004711321164111        4.9834251783487185        0.0000000000000000     
   10.786325484101299        5.5984722981161887        0.0000000000000000     
   10.580763227181066        6.0373845861498143        0.0000000000000000     
   10.295421911262165        6.5466958759423690        0.0000000000000000     
   10.006229021671817        6.9910471741944606        0.0000000000000000     
   9.6283608162905256        7.4836697598968538        0.0000000000000000     
   8.3982983050191731        8.1075929477479480        0.0000000000000000     
   7.3425420697894657        7.4838510935772851        0.0000000000000000     
   6.9621585715235916        6.9368026715140250        0.0000000000000000     
   6.7161155301491116        6.4870906038979488        0.0000000000000000     
   6.4420399622627507        5.9314289362446866        0.0000000000000000     
   6.1822328872454770        5.3809013930833025        0.0000000000000000     
   5.9869508267716283        4.9734831925742311        0.0000000000000000     
   5.7489603657631445        4.5418180801532984        0.0000000000000000     
   5.4731221949616238        4.2300180350483938        0.0000000000000000     
   5.1547365998919918        4.0517376242924099        0.0000000000000000     
   4.6525662344734462        3.9243870070876774        0.0000000000000000     
   3.9905718821380525        3.8713698016776430        0.0000000000000000     
   3.3370391826667611        3.9194379248206204        0.0000000000000000     
   2.8553324624427527        4.0547004342107620        0.0000000000000000     
   2.5280711622042964        4.2491001934285562        0.0000000000000000     
   2.2370461623473017        4.5587509995153761        0.0000000000000000     
   2.0185300902312511        4.9564880002831782        0.0000000000000000     
   1.2019756072243919        5.9368247054587098        0.0000000000000000     
 -0.50112902187028308        6.1435233915514127        0.0000000000000000     
  -1.9962780535596454        6.0008405410419163        0.0000000000000000     
  -3.5000000000000000        3.5000000000000000        0.0000000000000000     
  -3.2651227537316574        1.6881988007799709        0.0000000000000000     
 -0.93204895897515649        2.3625864391030693        0.0000000000000000     
  0.72190597059175987       0.64522643859620632        0.0000000000000000     
           3         157          12          11
          11          12          21          20
          29          30          32           1
          30          31           2          32
          31          33          34           2
           1          32          36          35
          32           2           4          36
          35          36         157           3
           2          34         158           4
         158          37           5           4
          37          38          40           5
          38          39           6          40
          39          41          42           6
          43          44           8          45
          44          46          48           8
          46          47           9          48
          47          49          51           9
          49          50          10          51
          50          52          53          10
           4           5          55          54
         157          54          56          12
          54          55          13          56
           5          40          57          55
          40           6          58          57
          55          57          59          13
          57          58          14          59
           6          42          60          58
          42           7          61          60
          58          60          62          14
          60          61          15          62
           7          45          63          61
          45           8          64          63
          61          63          65          15
          63          64          16          65
           8          48          66          64
          48           9          67          66
          64          66          68          16
          66          67          17          68
           9          51          69          67
          51          10          70          69
          67          69          71          17
          69          70          18          71
          10          53          72          70
          70          72          74          18
          72          73          19          74
          73          75          76          19
          12          56          77          21
          56          13          78          77
          77          78          22          21
          13          59          79          78
          59          14          80          79
          78          79          81          22
          16          68          83          82
          68          17          84          83
          83          84          23          85
          17          71          86          84
          71          18          24          86
          84          86          24          23
          18          74          87          24
          74          19          88          87
          87          88          25          24
          19          76          89          88
          88          89          90          25
          23          24          92          91
          91          92          93          26
          92          24          27          93
          24          25          95          94
          24          94          96          27
          94          95          28          96
          25          90          97          95
          93          27          99          98
          27          96         100          99
          35         101         102           1
           1         102         103          29
          29         103         104          30
          30         104         105          31
          31         105         106          33
          33         106         107          34
          34         107         108         158
         158         108         109          37
          37         109         110          38
          38         110         111          39
          39         111         112          41
          41         112         113          42
          42         113         114           7
           7         114         115          45
          45         115         116          43
          43         116         117          44
          44         117         118          46
          46         118         119          47
          47         119         120          49
          49         120         121          50
          50         121         122          52
          52         122         123          53
          53         123         124          72
          72         124         125          73
          73         125         126          75
          75         126         127          76
          76         127         128          89
          89         128         129          90
          90         129         130          97
          97         130         131          95
          95         131         132          28
          28         132         133          96
          96         133         134         100
         100         134         135          99
          99         135         136          98
          98         136         137          93
          93         137         138          26
          26         138         139          91
          91         139         140          23
          23         140         141          85
          85         141         142          83
          83         142         143          82
          82         143         144          16
          16         144         145          65
          65         145         146          15
          15         146         147          62
          62         147         148          14
          14         148         149          80
          80         149         150          79
          79         150         151          81
          81         151         152          22
          22         152         153          21
          21         153         154          20
          20         154         155          11
          11         155         156           3
           3         156         101          35
           4          54         157          36
