 VARIABLES = "X", "Y", "Z", "Material ID"
 ZONE F=FEPOINT, ET=QUADRILATERAL, N=         153 E=         122
  -1.9052944958126912       0.34833792884596537        0.0000000000000000                1
 -0.50865261327970324       0.44117394093895235        0.0000000000000000                1
  0.85279333787433131       0.55873574024363704        0.0000000000000000                1
  -1.9212845514764343        1.9717026181050057        0.0000000000000000                1
 -0.47249501136066357        1.5460909565497323        0.0000000000000000                1
  0.81754251722360405        1.9799841177427782        0.0000000000000000                1
   2.4593113240336733        2.0086975543669139        0.0000000000000000                1
   3.9889533075119150        1.8027935018053722        0.0000000000000000                1
   5.5400903912181922        2.0068778884579852        0.0000000000000000                1
   6.9883673559665951        2.0939150492234955        0.0000000000000000                1
   8.4317064434927307        2.0419203833608601        0.0000000000000000                1
  -1.7343934785165123        3.3560952304439717        0.0000000000000000                1
 -0.45545198794814601        3.1864056471719144        0.0000000000000000                1
   1.8945190094300111        3.9754382131824015        0.0000000000000000                1
   2.6293239428875483        3.5198118709584834        0.0000000000000000                1
   3.9931096475394012        3.2715003394724587        0.0000000000000000                1
   5.4576541667327163        3.5109560531409656        0.0000000000000000                1
   6.9850775912018763        3.4641035449987707        0.0000000000000000                1
   8.4945609731982561        3.5791673458063191        0.0000000000000000                1
   9.8989679995650430        3.4937987676930282        0.0000000000000000                1
  -1.4232827829814694        4.5328304768373613        0.0000000000000000                1
 -0.39807510563119458        4.5952319757809628        0.0000000000000000                1
  0.94590497423324993        4.4919094999133211        0.0000000000000000                1
   6.9488200917783125        4.9945062052732911        0.0000000000000000                1
   8.4566066412857843        4.9395671012764542        0.0000000000000000                1
   9.7349958216319887        4.8916747335375979        0.0000000000000000                1
   7.1056992193174784        6.2124277792177418        0.0000000000000000                1
   8.4792276020536228        6.2656973527369386        0.0000000000000000                1
   9.9056890299014544        6.2236782092895631        0.0000000000000000                1
  -1.7865118017702413       -9.4895348374960511E-002   0.0000000000000000                1
  -1.2587821264460026      -0.19512091135358908        0.0000000000000000                1
 -0.55220349911899491      -0.23666151355526724        0.0000000000000000                1
  -1.2278204861563280       0.45280112425505764        0.0000000000000000                1
  -2.9586506771250107E-003 -0.20689151603175140        0.0000000000000000                1
  0.19826379518593720       0.20985956195759417        0.0000000000000000                1
  -1.9639750636141913       0.99955875713977205        0.0000000000000000                1
  -1.2996038657575870       0.98408801060220130        0.0000000000000000                1
  0.24341833787433131        1.1681107402436370        0.0000000000000000                1
   1.1586631361006359        1.0923837429168288        0.0000000000000000                1
   1.8400963331250442        1.2949181984539515        0.0000000000000000                1
   2.4764168329138667        1.3775686633989515        0.0000000000000000                1
   1.7052713837218747        2.0638122301330446        0.0000000000000000                1
   2.9134468802231330        1.3608096275515120        0.0000000000000000                1
   3.2116636689975224        1.7654318967729226        0.0000000000000000                1
   5.1018475217260795        1.3804034066581601        0.0000000000000000                1
   5.5712419184139952        1.4607033583381412        0.0000000000000000                1
   4.7807363565559715        1.7602704536222671        0.0000000000000000                1
   6.2594150300442388        1.5055379331481988        0.0000000000000000                1
   6.9883796142082186        1.5114224024479170        0.0000000000000000                1
   6.2552392699037300        2.0762560958832075        0.0000000000000000                1
   7.7176294127156151        1.4944595665446796        0.0000000000000000                1
   8.4060422193544770        1.4810303703228229        0.0000000000000000                1
   7.7214701108754618        2.0860277697225800        0.0000000000000000                1
   8.8975292352576503        1.4890491079857917        0.0000000000000000                1
   9.0770478575168507        1.8845813214885967        0.0000000000000000                1
   1.7027708952709677        2.9784234770642324        0.0000000000000000                1
   2.5135234205157118        2.7738960198308931        0.0000000000000000                1
   3.2574298169944207        2.6199040844279864        0.0000000000000000                1
   3.9929699684524094        2.5654755599042462        0.0000000000000000                1
   3.3056841280309355        3.3294535739637992        0.0000000000000000                1
   4.7374893853691100        2.6044404797984915        0.0000000000000000                1
   5.4901831556018319        2.6879171529965129        0.0000000000000000                1
   4.6903342068614293        3.3179066354461577        0.0000000000000000                1
   6.2416625041700122        2.7388978395715857        0.0000000000000000                1
   6.9874947204118385        2.7559486892593323        0.0000000000000000                1
   6.2472325100006527        3.4471760416358950        0.0000000000000000                1
   7.7332155869602124        2.7653194934957215        0.0000000000000000                1
   8.4921050195941028        2.7321271548871118        0.0000000000000000                1
   7.7283178177759666        3.5323884972587702        0.0000000000000000                1
   9.3713130059522989        2.5871547194772990        0.0000000000000000                1
   10.048993537584513        2.8568782984565302        0.0000000000000000                1
   9.2451536597046005        3.5160046606551814        0.0000000000000000                1
   10.442808145789780        3.0074914200490022        0.0000000000000000                1
   10.474660571979896        3.4941527215628372        0.0000000000000000                1
   1.7909207001894996        4.6194106831347046        0.0000000000000000                1
   1.5704099352777208        4.8710896106213220        0.0000000000000000                1
   5.7102861549077213        3.9903132637138721        0.0000000000000000                1
   6.2020296843256224        4.1939949682903128        0.0000000000000000                1
   7.0315636719230472        4.1823579150279047        0.0000000000000000                1
   6.3587091952380721        4.7146831642083749        0.0000000000000000                1
   7.6549435764975211        4.1432031661164430        0.0000000000000000                1
   9.2512687587185756        4.1310201849398345        0.0000000000000000                1
   9.7883024910674710        4.1820249710090831        0.0000000000000000                1
   10.461825168139143        4.1846043506208916        0.0000000000000000                1
   10.419575513738222        4.8738873904959537        0.0000000000000000                1
   7.1081325595286549        5.7492664355387646        0.0000000000000000                1
   7.6583721252475758        5.7427681326851028        0.0000000000000000                1
   7.6155335480498376        6.4070004450945133        0.0000000000000000                1
   9.3049870959026215        5.7158116064799662        0.0000000000000000                1
   9.9525473002969100        5.6564071388764621        0.0000000000000000                1
   9.3608442245292665        6.4119044147848880        0.0000000000000000                1
   10.416441433114993        5.3553839197632422        0.0000000000000000                1
   7.8560812011905261        7.0262738871061936        0.0000000000000000                1
   8.4676487649566088        7.0571977388354759        0.0000000000000000                1
   9.0904785208952799        7.0338515893767095        0.0000000000000000                1
  -2.8756687582621105       0.74261757194367672        0.0000000000000000                1
  -2.5704554797068866       0.14787082946075292        0.0000000000000000                1
  -2.3160783257115027      -0.40577171043769217        0.0000000000000000                1
  -1.3079930010113734      -0.96677252262287583        0.0000000000000000                1
 -0.62456989300235999       -1.0593129619034818        0.0000000000000000                1
  0.48659812902047983      -0.52026586061109203        0.0000000000000000                1
  0.81396078776355074      -0.16850555006023671        0.0000000000000000                1
   1.1724015751017107       0.13728563592454218        0.0000000000000000                1
   1.5343516911837098       0.38419306808347625        0.0000000000000000                1
   2.0039573340819632       0.64391634354771310        0.0000000000000000                1
   2.5885146230554508       0.88618002135675400        0.0000000000000000                1
   3.1827550751426044        1.0332228294230836        0.0000000000000000                1
   3.4053256592410435        1.0596229181484986        0.0000000000000000                1
   3.9638576302912316        1.0702017349729502        0.0000000000000000                1
   4.5856729663598452        1.0278380155927447        0.0000000000000000                1
   4.8218883262227017        1.0100781334364162        0.0000000000000000                1
   5.4942678434090864       0.99313996077301936        0.0000000000000000                1
   6.2480897843797418        1.0089677351204080        0.0000000000000000                1
   6.9879641008284459        1.0006047620713634        0.0000000000000000                1
   7.7261100728106253       0.94502672223293915        0.0000000000000000                1
   8.4902815369106239       0.91603968410136560        0.0000000000000000                1
   9.2255451752764941        1.1138062176223320        0.0000000000000000                1
   9.6822456972971587        1.5963610943775626        0.0000000000000000                1
   9.9791539467546215        1.9777725969130464        0.0000000000000000                1
   10.304790196946682        2.2656185934952524        0.0000000000000000                1
   10.767698558042774        2.6592398802367208        0.0000000000000000                1
   11.113358780589014        3.3522184239380111        0.0000000000000000                1
   11.149558180072427        4.2069981572799655        0.0000000000000000                1
   11.004349064389974        4.9847083102143754        0.0000000000000000                1
   10.787396966072411        5.5959412203384353        0.0000000000000000                1
   10.580954685283650        6.0370105000124310        0.0000000000000000                1
   10.294909052654136        6.5475389982176191        0.0000000000000000                1
   10.006354640022064        6.9908663790204582        0.0000000000000000                1
   9.6285920775909268        7.4834041808910152        0.0000000000000000                1
   8.3978222191133653        8.1075458195618886        0.0000000000000000                1
   7.3421898349667138        7.4834347129339989        0.0000000000000000                1
   6.9621812178669176        6.9368410455087028        0.0000000000000000                1
   6.7150608928193520        6.4850428614252387        0.0000000000000000                1
   6.4433363078567538        5.9341431719478024        0.0000000000000000                1
   6.1820818766862820        5.3805809128855886        0.0000000000000000                1
   5.9863502452056201        4.9722665898840326        0.0000000000000000                1
   5.7482440098782428        4.5407313685235158        0.0000000000000000                1
   5.4737417392006442        4.2305106667982173        0.0000000000000000                1
   5.1540307479764218        4.0514645339663780        0.0000000000000000                1
   4.6522132127187774        3.9243305381760045        0.0000000000000000                1
   3.9890507334430199        3.8713604991170243        0.0000000000000000                1
   3.3349452866199636        3.9197889704482480        0.0000000000000000                1
   2.7723659214079954        4.0935282362377476        0.0000000000000000                1
   2.3342166874620727        4.4347363542584244        0.0000000000000000                1
   2.1098200945556531        4.7662106808632112        0.0000000000000000                1
   1.7681321330790669        5.5076386168699951        0.0000000000000000                1
   1.1995540264834501        5.9377259054868921        0.0000000000000000                1
 -0.50203983188193546        6.1435187765634591        0.0000000000000000                1
  -1.9950309374865518        6.0011212410039434        0.0000000000000000                1
  -3.5000000000000000        3.5000000000000000        0.0000000000000000                1
  -3.2653859899847935        1.6890399353431029        0.0000000000000000                1
  0.72007726143000572        3.1164332251497822        0.0000000000000000                1
  0.56363703850304969       0.71802662298161912        0.0000000000000000                1
           4           5          13          12
           5           6         152          13
          12          13          22          21
          13         152          23          22
          30          31          33           1
          31          32           2          33
          32          34          35           2
           1          33          37          36
          33           2           5          37
          36          37           5           4
           2          35         153           5
         153          39           6           5
          39          40          42           6
          40          41           7          42
          41          43          44           7
          45          46           9          47
          46          48          50           9
          48          49          10          50
          49          51          53          10
          51          52          11          53
          52          54          55          11
           6          42          56         152
          42           7          57          56
          56          57          15          14
           7          44          58          57
          44           8          59          58
          57          58          60          15
          58          59          16          60
           8          47          61          59
          47           9          62          61
          59          61          63          16
          61          62          17          63
           9          50          64          62
          50          10          65          64
          62          64          66          17
          64          65          18          66
          10          53          67          65
          53          11          68          67
          65          67          69          18
          67          68          19          69
          11          55          70          68
          68          70          72          19
          70          71          20          72
          71          73          74          20
          14          75          76          23
          17          66          78          77
          66          18          79          78
          78          79          24          80
          18          69          81          79
          69          19          25          81
          79          81          25          24
          19          72          82          25
          72          20          83          82
          82          83          26          25
          20          74          84          83
          83          84          85          26
          24          25          87          86
          86          87          88          27
          87          25          28          88
          25          26          90          89
          25          89          91          28
          89          90          29          91
          26          85          92          90
          88          28          94          93
          28          91          95          94
          36          96          97           1
           1          97          98          30
          30          98          99          31
          31          99         100          32
          32         100         101          34
          34         101         102          35
          35         102         103         153
         153         103         104          39
          39         104         105          40
          40         105         106          41
          41         106         107          43
          43         107         108          44
          44         108         109           8
           8         109         110          47
          47         110         111          45
          45         111         112          46
          46         112         113          48
          48         113         114          49
          49         114         115          51
          51         115         116          52
          52         116         117          54
          54         117         118          55
          55         118         119          70
          70         119         120          71
          71         120         121          73
          73         121         122          74
          74         122         123          84
          84         123         124          85
          85         124         125          92
          92         125         126          90
          90         126         127          29
          29         127         128          91
          91         128         129          95
          95         129         130          94
          94         130         131          93
          93         131         132          88
          88         132         133          27
          27         133         134          86
          86         134         135          24
          24         135         136          80
          80         136         137          78
          78         137         138          77
          77         138         139          17
          17         139         140          63
          63         140         141          16
          16         141         142          60
          60         142         143          15
          15         143         144          14
          14         144         145          75
          75         145         146          76
          76         146         147          23
          23         147         148          22
          22         148         149          21
          21         149         150          12
          12         150         151           4
           4         151          96          36
          14          23         152          56
