 VARIABLES = "X", "Y", "Z", "Material ID"
 ZONE F=FEPOINT, ET=QUADRILATERAL, N=         125 E=          99
  -1.9052944958116218       0.34833792885046189        0.0000000000000000                1
 -0.50865261324223554       0.44117394108245533        0.0000000000000000                1
  0.85279333787433131       0.55873574024363704        0.0000000000000000                1
  -1.9212845514279093        1.9717026182907060        0.0000000000000000                1
 -0.47249501038484304        1.5460909598982613        0.0000000000000000                1
  0.81754253207642325        1.9799841633052548        0.0000000000000000                1
   2.4593126597450929        2.0087005702321061        0.0000000000000000                1
   3.9890052200928294        1.8028710081310648        0.0000000000000000                1
   5.5408679287593161        2.0076241986421581        0.0000000000000000                1
   6.9942283077776102        2.0981232278005963        0.0000000000000000                1
   8.4462238366130702        2.0535282420836851        0.0000000000000000                1
  -1.7343934784515134        3.3560952306924317        0.0000000000000000                1
 -0.45545198669543224        3.1864056514815271        0.0000000000000000                1
   1.8945191692039705        3.9754386280436047        0.0000000000000000                1
   2.6293256403725360        3.5198156102876923        0.0000000000000000                1
   3.9932033940053824        3.2716284495899903        0.0000000000000000                1
   5.4609520907266802        3.5128460815738669        0.0000000000000000                1
   6.9966802738378711        3.4593238177115246        0.0000000000000000                1
   8.5738646893072250        3.6059648942317302        0.0000000000000000                1
   9.5995876093927652        3.5999142875877048        0.0000000000000000                1
  -1.4232827829351973        4.5328304770146790        0.0000000000000000                1
 -0.39807510476561220        4.5952319787467948        0.0000000000000000                1
  0.94590498724006744        4.4919095390876471        0.0000000000000000                1
   7.1141619903046376        5.0220227493940186        0.0000000000000000                1
   8.3369476291547944        4.6423181611972870        0.0000000000000000                1
   9.6347311076224660        4.8097134621013344        0.0000000000000000                1
   7.6963813875775671        5.8025471604674870        0.0000000000000000                1
   8.7038172342486657        5.8325034759883847        0.0000000000000000                1
   9.5919039186365502        5.7389052132808347        0.0000000000000000                1
  -1.7865118017700263       -9.4895348374043675E-002   0.0000000000000000                1
  -1.2587821264451893      -0.19512091135016477        0.0000000000000000                1
 -0.55220349911759725      -0.23666151354939580        0.0000000000000000                1
  -1.2278204861404236       0.45280112431630931        0.0000000000000000                1
  -2.9586506759632244E-003 -0.20689151602686215        0.0000000000000000                1
  0.19826379521647214       0.20985956207475467        0.0000000000000000                1
  -1.9639750635980660       0.99955875720193610        0.0000000000000000                1
  -1.2996038657265743       0.98408801072134278        0.0000000000000000                1
  0.24341833787433131        1.1681107402436370        0.0000000000000000                1
   1.1586631432201295        1.0923837649557377        0.0000000000000000                1
   1.8400964000131017        1.2949183798200010        0.0000000000000000                1
   2.4764172458531593        1.3775696301002807        0.0000000000000000                1
   1.7052715441261332        2.0638126578387350        0.0000000000000000                1
   2.9134475840904126        1.3608112348414452        0.0000000000000000                1
   3.2116723507771354        1.7654478113280840        0.0000000000000000                1
   5.1019369891570596        1.3805164263732430        0.0000000000000000                1
   5.5715543935926215        1.4610291224874459        0.0000000000000000                1
   4.7809470688201765        1.7605182059985343        0.0000000000000000                1
   6.2604125782712003        1.5064669508677022        0.0000000000000000                1
   6.9908933055928806        1.5136931277868744        0.0000000000000000                1
   6.2574883612927250        2.0780291000925137        0.0000000000000000                1
   7.7221014974227495        1.4987254627645978        0.0000000000000000                1
   8.4116624574064787        1.4871576714529684        0.0000000000000000                1
   7.7337727569632628        2.0946317589305807        0.0000000000000000                1
   8.9032395199659700        1.4963369290625752        0.0000000000000000                1
   9.0890586833181235        1.8977027038058549        0.0000000000000000                1
   1.7027711193487916        2.9784240675885187        0.0000000000000000                1
   2.5135255446535045        2.7739007408308507        0.0000000000000000                1
   3.2574462048143902        2.6199338361291380        0.0000000000000000                1
   3.9930717636296822        2.5656200016382860        0.0000000000000000                1
   3.3056979052132158        3.3294781434956691        0.0000000000000000                1
   4.7379981942763063        2.6049769407662740        0.0000000000000000                1
   5.4918775796794383        2.6892273265544544        0.0000000000000000                1
   4.6908943631779669        3.3184439605600917        0.0000000000000000                1
   6.2457182230248698        2.7409999748759128        0.0000000000000000                1
   6.9962418834762570        2.7588285810813242        0.0000000000000000                1
   6.2557595154574495        3.4490216575524353        0.0000000000000000                1
   7.7550830602196266        2.7740976209169514        0.0000000000000000                1
   8.5413618239461915        2.7523293003924372        0.0000000000000000                1
   7.7423019422186377        3.5112651514912940        0.0000000000000000                1
   9.3644528513347467        2.5860406268800111        0.0000000000000000                1
   1.7909207085894170        4.6194107085815963        0.0000000000000000                1
   1.5704099400911899        4.8710896254394989        0.0000000000000000                1
   5.7155721968275977        3.9934007577027639        0.0000000000000000                1
   6.2244954837546480        4.2001401453107556        0.0000000000000000                1
   7.0578508452048201        4.1612739217333745        0.0000000000000000                1
   6.4071915430215967        4.7416176742728302        0.0000000000000000                1
   7.6602504976752606        4.0872953838839718        0.0000000000000000                1
  -2.8756687582621105       0.74261757194367672        0.0000000000000000                1
  -2.5704554797068866       0.14787082946075292        0.0000000000000000                1
  -2.3160783257115027      -0.40577171043769217        0.0000000000000000                1
  -1.3079930010113734      -0.96677252262287583        0.0000000000000000                1
 -0.62456989300235999       -1.0593129619034818        0.0000000000000000                1
  0.48659812902047983      -0.52026586061109203        0.0000000000000000                1
  0.81396078776355074      -0.16850555006023671        0.0000000000000000                1
   1.1724015751017107       0.13728563592454218        0.0000000000000000                1
   1.5343516911837098       0.38419306808347625        0.0000000000000000                1
   2.0039573340819632       0.64391634354771310        0.0000000000000000                1
   2.5885146230554508       0.88618002135675400        0.0000000000000000                1
   3.1827550751426044        1.0332228294230836        0.0000000000000000                1
   3.4053256592410435        1.0596229181484986        0.0000000000000000                1
   3.9638576302912316        1.0702017349729502        0.0000000000000000                1
   4.5856729663598452        1.0278380155927447        0.0000000000000000                1
   4.8218883262227017        1.0100781334364162        0.0000000000000000                1
   5.4942678434090864       0.99313996077301936        0.0000000000000000                1
   6.2480897843797418        1.0089677351204080        0.0000000000000000                1
   6.9879641008284459        1.0006047620713634        0.0000000000000000                1
   7.7261100728106253       0.94502672223293915        0.0000000000000000                1
   8.4902815369106239       0.91603968410136560        0.0000000000000000                1
   9.2255451752764941        1.1138062176223320        0.0000000000000000                1
   9.6888409930083732        1.6053853904307327        0.0000000000000000                1
   10.034638774950148        2.0351998023182158        0.0000000000000000                1
   11.089993719672751        3.2529561782681782        0.0000000000000000                1
   10.923903509739500        5.2409095280669682        0.0000000000000000                1
   10.330061192018100        6.4892322697855986        0.0000000000000000                1
   9.7233541249336373        7.3705284611027562        0.0000000000000000                1
   6.6875616358714183        6.4313510122175686        0.0000000000000000                1
   6.2413989814800752        5.5066718861158748        0.0000000000000000                1
   5.9906623778846839        4.9810094147025277        0.0000000000000000                1
   5.7482440098782428        4.5407313685235158        0.0000000000000000                1
   5.4737417392006442        4.2305106667982173        0.0000000000000000                1
   5.1540307479764218        4.0514645339663780        0.0000000000000000                1
   4.6522132127187774        3.9243305381760045        0.0000000000000000                1
   3.9890507334430199        3.8713604991170243        0.0000000000000000                1
   3.3349452866199636        3.9197889704482480        0.0000000000000000                1
   2.7723659214079954        4.0935282362377476        0.0000000000000000                1
   2.3342166874620727        4.4347363542584244        0.0000000000000000                1
   2.1098200945556531        4.7662106808632112        0.0000000000000000                1
   1.7681321330790669        5.5076386168699951        0.0000000000000000                1
   1.1995540264834501        5.9377259054868921        0.0000000000000000                1
 -0.50203983188193546        6.1435187765634591        0.0000000000000000                1
  -1.9950309374865518        6.0011212410039434        0.0000000000000000                1
  -3.5000000000000000        3.5000000000000000        0.0000000000000000                1
  -3.2653859899847935        1.6890399353431029        0.0000000000000000                1
  0.72007728020024475        3.1164332822365259        0.0000000000000000                1
  0.56363703905242635       0.71802662489116420        0.0000000000000000                1
           4           5          13          12
           5           6         124          13
          12          13          22          21
          13         124          23          22
          19          20          26          25
          24          25          28          27
          25          26          29          28
          30          31          33           1
          31          32           2          33
          32          34          35           2
           1          33          37          36
          33           2           5          37
          36          37           5           4
           2          35         125           5
         125          39           6           5
          39          40          42           6
          40          41           7          42
          41          43          44           7
          45          46           9          47
          46          48          50           9
          48          49          10          50
          49          51          53          10
          51          52          11          53
          52          54          55          11
           6          42          56         124
          42           7          57          56
          56          57          15          14
           7          44          58          57
          44           8          59          58
          57          58          60          15
          58          59          16          60
           8          47          61          59
          47           9          62          61
          59          61          63          16
          61          62          17          63
           9          50          64          62
          50          10          65          64
          62          64          66          17
          64          65          18          66
          10          53          67          65
          53          11          68          67
          65          67          69          18
          67          68          19          69
          11          55          70          68
          68          70          20          19
          14          71          72          23
          17          66          74          73
          66          18          75          74
          74          75          24          76
          18          69          77          75
          69          19          25          77
          75          77          25          24
          36          78          79           1
           1          79          80          30
          30          80          81          31
          31          81          82          32
          32          82          83          34
          34          83          84          35
          35          84          85         125
         125          85          86          39
          39          86          87          40
          40          87          88          41
          41          88          89          43
          43          89          90          44
          44          90          91           8
           8          91          92          47
          47          92          93          45
          45          93          94          46
          46          94          95          48
          48          95          96          49
          49          96          97          51
          51          97          98          52
          52          98          99          54
          54          99         100          55
          55         100         101          70
          70         101         102          20
          20         102         103          26
          26         103         104          29
          29         104         105          28
          28         105         106          27
          27         106         107          24
          24         107         108          76
          76         108         109          74
          74         109         110          73
          73         110         111          17
          17         111         112          63
          63         112         113          16
          16         113         114          60
          60         114         115          15
          15         115         116          14
          14         116         117          71
          71         117         118          72
          72         118         119          23
          23         119         120          22
          22         120         121          21
          21         121         122          12
          12         122         123           4
           4         123          78          36
          14          23         124          56
