 VARIABLES = "X", "Y", "Z", "Material ID"
 ZONE F=FEPOINT, ET=QUADRILATERAL, N=         160 E=         129
  -1.8559239087532440       0.42722587530860140        0.0000000000000000                1
 -0.33239592639800064       0.44191080822250162        0.0000000000000000                1
  0.85279333787433131       0.55873574024363704        0.0000000000000000                1
  -2.0176720541076083        2.2160908353072442        0.0000000000000000                1
   8.6766951536500644E-002   1.3277653361986643        0.0000000000000000                1
   1.0424650436897165        1.7125317823654154        0.0000000000000000                1
   2.4875362964995325        1.9216937499037239        0.0000000000000000                1
   3.9910048264442093        1.7975462583251964        0.0000000000000000                1
   5.5404762349688417        2.0068735560868021        0.0000000000000000                1
   6.9883930444930540        2.0939236274161765        0.0000000000000000                1
   8.4317069277891559        2.0419205696021083        0.0000000000000000                1
  -1.8370021000353343        3.5133638075916149        0.0000000000000000                1
 -0.76317650389251379        3.4143538024759406        0.0000000000000000                1
  0.92499346147479711        3.3354168282927756        0.0000000000000000                1
   2.5257560296484196        3.4914166355414924        0.0000000000000000                1
   3.9933790219805396        3.2672666922859013        0.0000000000000000                1
   5.4579815625885715        3.5109657557495311        0.0000000000000000                1
   6.9851024291613015        3.4641122268661837        0.0000000000000000                1
   8.4945615081766856        3.5791675520522177        0.0000000000000000                1
   9.8989680055889515        3.4937987699953656        0.0000000000000000                1
  -1.4569901820975379        4.5924401849651044        0.0000000000000000                1
 -0.32423339115108391        4.5921339346288805        0.0000000000000000                1
  0.83986556479083030        4.8319806678616892        0.0000000000000000                1
   6.9488232074145229        4.9945073478541380        0.0000000000000000                1
   8.4566074006926613        4.9395673911839468        0.0000000000000000                1
   9.7349958705796791        4.8916747524236230        0.0000000000000000                1
   7.1056992420098775        6.2124277879550158        0.0000000000000000                1
   8.4792276551918153        6.2656973732376811        0.0000000000000000                1
   9.9056890334549319        6.2236782106487416        0.0000000000000000                1
  -1.7584655611886448       -6.8591370755450298E-002   0.0000000000000000                1
  -1.2111544654908029      -0.17274286956289076        0.0000000000000000                1
 -0.49561062235798437      -0.23026334679369526        0.0000000000000000                1
  -1.0912877852621123       0.53079366710351117        0.0000000000000000                1
   4.2513187952873628E-002 -0.21117324636752019        0.0000000000000000                1
  0.30469568468647884       0.18138927069016861        0.0000000000000000                1
  -1.9567425740128417        1.1890547575207149        0.0000000000000000                1
  -1.0086600570779651        1.3679215616769640        0.0000000000000000                1
  0.24341833787433131        1.1681107402436370        0.0000000000000000                1
   1.2819698378895323        1.0007171491954812        0.0000000000000000                1
   1.8982737948144031        1.2249582804081116        0.0000000000000000                1
   2.4994856808992041        1.3404249819149909        0.0000000000000000                1
   1.7933562836520831        1.8825247360099679        0.0000000000000000                1
   2.9225875234395731        1.3449653543915585        0.0000000000000000                1
   3.2183704700112332        1.7405501711013638        0.0000000000000000                1
   5.1020718185861842        1.3803911120545036        0.0000000000000000                1
   5.5713999246273200        1.4607074507721496        0.0000000000000000                1
   4.7815552124630960        1.7595993818372699        0.0000000000000000                1
   6.2594715078396481        1.5055509918045475        0.0000000000000000                1
   6.9883928781342055        1.5114267550779104        0.0000000000000000                1
   6.2553576227854730        2.0762842469193949        0.0000000000000000                1
   7.7176316158662965        1.4944603800448180        0.0000000000000000                1
   8.4060424865509802        1.4810304729645991        0.0000000000000000                1
   7.7214742018420797        2.0860292904637552        0.0000000000000000                1
   8.8975292604556255        1.4890491177381069        0.0000000000000000                1
   9.0770479003674964        1.8845813380507097        0.0000000000000000                1
   4.4238177162835846E-002   2.4277484080239922        0.0000000000000000                1
  0.93134699214032401        2.5272951024209793        0.0000000000000000                1
  0.12372059196317942        3.3384774071452359        0.0000000000000000                1
   1.7381622803728436        2.6233719427660533        0.0000000000000000                1
   2.5040380209342699        2.6393951963926399        0.0000000000000000                1
   1.7070688345568859        3.3829181912614241        0.0000000000000000                1
   3.2534813405437104        2.5883108452387953        0.0000000000000000                1
   3.9945132548896103        2.5587499747789764        0.0000000000000000                1
   3.2975325136131861        3.3104306287420497        0.0000000000000000                1
   4.7387797784367001        2.6035544873500327        0.0000000000000000                1
   5.4907069142689364        2.6879254588220292        0.0000000000000000                1
   4.6912010302238265        3.3173747870019952        0.0000000000000000                1
   6.2418101427030344        2.7389350039600466        0.0000000000000000                1
   6.9875258552200785        2.7559593211021749        0.0000000000000000                1
   6.2473423897797922        3.4472058047842964        0.0000000000000000                1
   7.7332204754415619        2.7653213254015618        0.0000000000000000                1
   8.4921055970085639        2.7321273772130361        0.0000000000000000                1
   7.7283219358066129        3.5323900527179011        0.0000000000000000                1
   9.3713130560715570        2.5871547388131595        0.0000000000000000                1
   10.048993540740266        2.8568782996625202        0.0000000000000000                1
   9.2451537239654673        3.5160046854191744        0.0000000000000000                1
   10.442808146004051        3.0074914201297500        0.0000000000000000                1
   10.474660572898328        3.4941527219123265        0.0000000000000000                1
  0.26587720162404888        3.9751822974060453        0.0000000000000000                1
  0.88301336151540877        4.0680098118121926        0.0000000000000000                1
   1.7387734432864048        4.1603718549023530        0.0000000000000000                1
   2.2692185726123779        3.9851888027682985        0.0000000000000000                1
   1.5057237582735694        4.7266999801748089        0.0000000000000000                1
   5.7103543120247373        3.9903327483376358        0.0000000000000000                1
   6.2020686679536636        4.1940064283997636        0.0000000000000000                1
   7.0315760073545643        4.1823623306930484        0.0000000000000000                1
   6.3587144409247172        4.7146850744703332        0.0000000000000000                1
   7.6549461275490041        4.1432041373751174        0.0000000000000000                1
   9.2512688235887683        4.1310202099449542        0.0000000000000000                1
   9.7883025194620323        4.1820249819506614        0.0000000000000000                1
   10.461825170662140        4.1846043515850253        0.0000000000000000                1
   10.419575517225361        4.8738873918300518        0.0000000000000000                1
   7.1081328198290015        5.7492665354168011        0.0000000000000000                1
   7.6583723153058427        5.7427682057339924        0.0000000000000000                1
   7.6155335880467021        6.4070004605215898        0.0000000000000000                1
   9.3049871477960213        5.7158116264956167        0.0000000000000000                1
   9.9525473258403547        5.6564071487288370        0.0000000000000000                1
   9.3608442502541713        6.4119044247064316        0.0000000000000000                1
   10.416441435553065        5.3553839206953837        0.0000000000000000                1
   7.8560812044119075        7.0262738883370446        0.0000000000000000                1
   8.4676487689309816        7.0571977403555257        0.0000000000000000                1
   9.0904785234525534        7.0338515903541161        0.0000000000000000                1
  -2.8756687582621105       0.74261757194367672        0.0000000000000000                1
  -2.5704554797068866       0.14787082946075292        0.0000000000000000                1
  -2.3160783257115027      -0.40577171043769217        0.0000000000000000                1
  -1.3079930010113734      -0.96677252262287583        0.0000000000000000                1
 -0.62456989300235999       -1.0593129619034818        0.0000000000000000                1
  0.48659812902047983      -0.52026586061109203        0.0000000000000000                1
  0.81396078776355074      -0.16850555006023671        0.0000000000000000                1
   1.1724015751017107       0.13728563592454218        0.0000000000000000                1
   1.5343516911837098       0.38419306808347625        0.0000000000000000                1
   2.0039573340819632       0.64391634354771310        0.0000000000000000                1
   2.5885146230554508       0.88618002135675400        0.0000000000000000                1
   3.1827550751426044        1.0332228294230836        0.0000000000000000                1
   3.4053256592410435        1.0596229181484986        0.0000000000000000                1
   3.9638576302912316        1.0702017349729502        0.0000000000000000                1
   4.5856729663598452        1.0278380155927447        0.0000000000000000                1
   4.8218883262227017        1.0100781334364162        0.0000000000000000                1
   5.4942678434090864       0.99313996077301936        0.0000000000000000                1
   6.2480897843797418        1.0089677351204080        0.0000000000000000                1
   6.9879641008284459        1.0006047620713634        0.0000000000000000                1
   7.7261100728106253       0.94502672223293915        0.0000000000000000                1
   8.4902815369106239       0.91603968410136560        0.0000000000000000                1
   9.2255451752764941        1.1138062176223320        0.0000000000000000                1
   9.6822456972971587        1.5963610943775626        0.0000000000000000                1
   9.9791539467546215        1.9777725969130464        0.0000000000000000                1
   10.304790196946682        2.2656185934952524        0.0000000000000000                1
   10.767698558042774        2.6592398802367208        0.0000000000000000                1
   11.113358780589014        3.3522184239380111        0.0000000000000000                1
   11.149558180072427        4.2069981572799655        0.0000000000000000                1
   11.004349064389974        4.9847083102143754        0.0000000000000000                1
   10.787396966072411        5.5959412203384353        0.0000000000000000                1
   10.580954685283650        6.0370105000124310        0.0000000000000000                1
   10.294909052654136        6.5475389982176191        0.0000000000000000                1
   10.006354640022064        6.9908663790204582        0.0000000000000000                1
   9.6285920775909268        7.4834041808910152        0.0000000000000000                1
   8.3978222191133653        8.1075458195618886        0.0000000000000000                1
   7.3421898349667138        7.4834347129339989        0.0000000000000000                1
   6.9621812178669176        6.9368410455087028        0.0000000000000000                1
   6.7150608928193520        6.4850428614252387        0.0000000000000000                1
   6.4433363078567538        5.9341431719478024        0.0000000000000000                1
   6.1820818766862820        5.3805809128855886        0.0000000000000000                1
   5.9863502452056201        4.9722665898840326        0.0000000000000000                1
   5.7482440098782428        4.5407313685235158        0.0000000000000000                1
   5.4737417392006442        4.2305106667982173        0.0000000000000000                1
   5.1540307479764218        4.0514645339663780        0.0000000000000000                1
   4.6522132127187774        3.9243305381760045        0.0000000000000000                1
   3.9890507334430199        3.8713604991170243        0.0000000000000000                1
   3.3349452866199636        3.9197889704482480        0.0000000000000000                1
   2.8548283532495251        4.0549187040926311        0.0000000000000000                1
   2.5267640579358188        4.2501352702256305        0.0000000000000000                1
   2.2379301453020695        4.5575040688320527        0.0000000000000000                1
   2.0181700024877318        4.9573174924917138        0.0000000000000000                1
   1.1995540264834501        5.9377259054868921        0.0000000000000000                1
 -0.50203983188193546        6.1435187765634591        0.0000000000000000                1
  -1.9950309374865518        6.0011212410039434        0.0000000000000000                1
  -3.5000000000000000        3.5000000000000000        0.0000000000000000                1
  -3.2653859899847935        1.6890399353431029        0.0000000000000000                1
 -0.93211972287755029        2.3627256266862555        0.0000000000000000                1
  0.72177029057131759       0.64515158884222890        0.0000000000000000                1
           4         159          13          12
          12          13          22          21
          30          31          33           1
          31          32           2          33
          32          34          35           2
           1          33          37          36
          33           2           5          37
          36          37         159           4
           2          35         160           5
         160          39           6           5
          39          40          42           6
          40          41           7          42
          41          43          44           7
          45          46           9          47
          46          48          50           9
          48          49          10          50
          49          51          53          10
          51          52          11          53
          52          54          55          11
           5           6          57          56
         159          56          58          13
          56          57          14          58
           6          42          59          57
          42           7          60          59
          57          59          61          14
          59          60          15          61
           7          44          62          60
          44           8          63          62
          60          62          64          15
          62          63          16          64
           8          47          65          63
          47           9          66          65
          63          65          67          16
          65          66          17          67
           9          50          68          66
          50          10          69          68
          66          68          70          17
          68          69          18          70
          10          53          71          69
          53          11          72          71
          69          71          73          18
          71          72          19          73
          11          55          74          72
          72          74          76          19
          74          75          20          76
          75          77          78          20
          13          58          79          22
          58          14          80          79
          79          80          23          22
          14          61          81          80
          61          15          82          81
          80          81          83          23
          17          70          85          84
          70          18          86          85
          85          86          24          87
          18          73          88          86
          73          19          25          88
          86          88          25          24
          19          76          89          25
          76          20          90          89
          89          90          26          25
          20          78          91          90
          90          91          92          26
          24          25          94          93
          93          94          95          27
          94          25          28          95
          25          26          97          96
          25          96          98          28
          96          97          29          98
          26          92          99          97
          95          28         101         100
          28          98         102         101
          36         103         104           1
           1         104         105          30
          30         105         106          31
          31         106         107          32
          32         107         108          34
          34         108         109          35
          35         109         110         160
         160         110         111          39
          39         111         112          40
          40         112         113          41
          41         113         114          43
          43         114         115          44
          44         115         116           8
           8         116         117          47
          47         117         118          45
          45         118         119          46
          46         119         120          48
          48         120         121          49
          49         121         122          51
          51         122         123          52
          52         123         124          54
          54         124         125          55
          55         125         126          74
          74         126         127          75
          75         127         128          77
          77         128         129          78
          78         129         130          91
          91         130         131          92
          92         131         132          99
          99         132         133          97
          97         133         134          29
          29         134         135          98
          98         135         136         102
         102         136         137         101
         101         137         138         100
         100         138         139          95
          95         139         140          27
          27         140         141          93
          93         141         142          24
          24         142         143          87
          87         143         144          85
          85         144         145          84
          84         145         146          17
          17         146         147          67
          67         147         148          16
          16         148         149          64
          64         149         150          15
          15         150         151          82
          82         151         152          81
          81         152         153          83
          83         153         154          23
          23         154         155          22
          22         155         156          21
          21         156         157          12
          12         157         158           4
           4         158         103          36
           5          56         159          37
