  TITLE = "SEM hex mesh" 
  VARIABLES = "x","y", "z"
 ZONE I=           6 ,J=           6 ,K=           6 , F=POINT
  -3.1521061827299901       0.77505079264091048        0.0000000000000000     
  -3.0853347599477816       0.77348767664086904        0.0000000000000000     
  -2.9105249056267697       0.76939538582440181        0.0000000000000000     
  -2.6944480425491646       0.76433703619154991        0.0000000000000000     
  -2.5196381882281527       0.76024474537508280        0.0000000000000000     
  -2.4528667654459442       0.75868162937504136        0.0000000000000000     
  -3.1434711662411416       0.84440420659239890        0.0000000000000000     
  -3.0774078101427902       0.84289215208575441        0.0000000000000000     
  -2.9044516984664179       0.83893354199451675        0.0000000000000000     
  -2.6906661873103777       0.83404043082533019        0.0000000000000000     
  -2.5177100756340045       0.83008182073409242        0.0000000000000000     
  -2.4516467195356526       0.82856976622744793        0.0000000000000000     
  -3.1208643995799203        1.0259738015532367        0.0000000000000000     
  -3.0566547861262081        1.0245954277718219        0.0000000000000000     
  -2.8885518356998965        1.0209867983628758        0.0000000000000000     
  -2.6807651617546986        1.0165262871078133        0.0000000000000000     
  -2.5126622113283870        1.0129176576988672        0.0000000000000000     
  -2.4484525978746747        1.0115392839174526        0.0000000000000000     
  -3.0929208992351742        1.2504061635719355        0.0000000000000000     
  -3.0310026377030264        1.2491930282541861        0.0000000000000000     
  -2.8688985244875589        1.2460169987593641        0.0000000000000000     
  -2.6685268211209179        1.2420912104052200        0.0000000000000000     
  -2.5064227079054491        1.2389151809103982        0.0000000000000000     
  -2.4445044463733017        1.2377020455926484        0.0000000000000000     
  -3.0703141325739534        1.4319757585327735        0.0000000000000000     
  -3.0102496136864447        1.4308963039402531        0.0000000000000000     
  -2.8529986617210374        1.4280702551277236        0.0000000000000000     
  -2.6586257955652401        1.4245770666877036        0.0000000000000000     
  -2.5013748435998324        1.4217510178751733        0.0000000000000000     
  -2.4413103247123238        1.4206715632826530        0.0000000000000000     
  -3.0616791160851049        1.5013291724842617        0.0000000000000000     
  -3.0023226638814533        1.5003007793851386        0.0000000000000000     
  -2.8469254545606857        1.4976084112978381        0.0000000000000000     
  -2.6548439403264519        1.4942804613214835        0.0000000000000000     
  -2.4994467310056838        1.4915880932341825        0.0000000000000000     
  -2.4400902788020322        1.4905597001350597        0.0000000000000000     
  -3.1521061827299901       0.77505079264091048        9.5491502812526274E-002
  -3.0853347599477816       0.77348767664086904        9.5491502812526274E-002
  -2.9105249056267697       0.76939538582440181        9.5491502812526274E-002
  -2.6944480425491646       0.76433703619154991        9.5491502812526274E-002
  -2.5196381882281527       0.76024474537508280        9.5491502812526274E-002
  -2.4528667654459442       0.75868162937504136        9.5491502812526274E-002
  -3.1434711662411416       0.84440420659239890        9.5491502812526274E-002
  -3.0774078101427902       0.84289215208575441        9.5491502812526274E-002
  -2.9044516984664179       0.83893354199451675        9.5491502812526274E-002
  -2.6906661873103777       0.83404043082533019        9.5491502812526274E-002
  -2.5177100756340045       0.83008182073409242        9.5491502812526274E-002
  -2.4516467195356526       0.82856976622744793        9.5491502812526274E-002
  -3.1208643995799203        1.0259738015532367        9.5491502812526274E-002
  -3.0566547861262081        1.0245954277718219        9.5491502812526274E-002
  -2.8885518356998965        1.0209867983628758        9.5491502812526274E-002
  -2.6807651617546986        1.0165262871078133        9.5491502812526274E-002
  -2.5126622113283870        1.0129176576988672        9.5491502812526274E-002
  -2.4484525978746747        1.0115392839174526        9.5491502812526274E-002
  -3.0929208992351742        1.2504061635719355        9.5491502812526274E-002
  -3.0310026377030264        1.2491930282541861        9.5491502812526274E-002
  -2.8688985244875589        1.2460169987593641        9.5491502812526274E-002
  -2.6685268211209179        1.2420912104052200        9.5491502812526274E-002
  -2.5064227079054491        1.2389151809103982        9.5491502812526274E-002
  -2.4445044463733017        1.2377020455926484        9.5491502812526274E-002
  -3.0703141325739534        1.4319757585327735        9.5491502812526274E-002
  -3.0102496136864447        1.4308963039402531        9.5491502812526274E-002
  -2.8529986617210374        1.4280702551277236        9.5491502812526274E-002
  -2.6586257955652401        1.4245770666877036        9.5491502812526274E-002
  -2.5013748435998324        1.4217510178751733        9.5491502812526274E-002
  -2.4413103247123238        1.4206715632826530        9.5491502812526274E-002
  -3.0616791160851049        1.5013291724842617        9.5491502812526274E-002
  -3.0023226638814533        1.5003007793851386        9.5491502812526274E-002
  -2.8469254545606857        1.4976084112978381        9.5491502812526274E-002
  -2.6548439403264519        1.4942804613214835        9.5491502812526274E-002
  -2.4994467310056838        1.4915880932341825        9.5491502812526274E-002
  -2.4400902788020322        1.4905597001350597        9.5491502812526274E-002
  -3.1521061827299901       0.77505079264091048       0.34549150281252627     
  -3.0853347599477816       0.77348767664086904       0.34549150281252627     
  -2.9105249056267697       0.76939538582440181       0.34549150281252627     
  -2.6944480425491646       0.76433703619154991       0.34549150281252627     
  -2.5196381882281527       0.76024474537508280       0.34549150281252627     
  -2.4528667654459442       0.75868162937504136       0.34549150281252627     
  -3.1434711662411416       0.84440420659239890       0.34549150281252627     
  -3.0774078101427902       0.84289215208575441       0.34549150281252627     
  -2.9044516984664179       0.83893354199451675       0.34549150281252627     
  -2.6906661873103777       0.83404043082533019       0.34549150281252627     
  -2.5177100756340045       0.83008182073409242       0.34549150281252627     
  -2.4516467195356526       0.82856976622744793       0.34549150281252627     
  -3.1208643995799203        1.0259738015532367       0.34549150281252627     
  -3.0566547861262081        1.0245954277718219       0.34549150281252627     
  -2.8885518356998965        1.0209867983628758       0.34549150281252627     
  -2.6807651617546986        1.0165262871078133       0.34549150281252627     
  -2.5126622113283870        1.0129176576988672       0.34549150281252627     
  -2.4484525978746747        1.0115392839174526       0.34549150281252627     
  -3.0929208992351742        1.2504061635719355       0.34549150281252627     
  -3.0310026377030264        1.2491930282541861       0.34549150281252627     
  -2.8688985244875589        1.2460169987593641       0.34549150281252627     
  -2.6685268211209179        1.2420912104052200       0.34549150281252627     
  -2.5064227079054491        1.2389151809103982       0.34549150281252627     
  -2.4445044463733017        1.2377020455926484       0.34549150281252627     
  -3.0703141325739534        1.4319757585327735       0.34549150281252627     
  -3.0102496136864447        1.4308963039402531       0.34549150281252627     
  -2.8529986617210374        1.4280702551277236       0.34549150281252627     
  -2.6586257955652401        1.4245770666877036       0.34549150281252627     
  -2.5013748435998324        1.4217510178751733       0.34549150281252627     
  -2.4413103247123238        1.4206715632826530       0.34549150281252627     
  -3.0616791160851049        1.5013291724842617       0.34549150281252627     
  -3.0023226638814533        1.5003007793851386       0.34549150281252627     
  -2.8469254545606857        1.4976084112978381       0.34549150281252627     
  -2.6548439403264519        1.4942804613214835       0.34549150281252627     
  -2.4994467310056838        1.4915880932341825       0.34549150281252627     
  -2.4400902788020322        1.4905597001350597       0.34549150281252627     
  -3.1521061827299901       0.77505079264091048       0.65450849718747373     
  -3.0853347599477816       0.77348767664086904       0.65450849718747373     
  -2.9105249056267697       0.76939538582440181       0.65450849718747373     
  -2.6944480425491646       0.76433703619154991       0.65450849718747373     
  -2.5196381882281527       0.76024474537508280       0.65450849718747373     
  -2.4528667654459442       0.75868162937504136       0.65450849718747373     
  -3.1434711662411416       0.84440420659239890       0.65450849718747373     
  -3.0774078101427902       0.84289215208575441       0.65450849718747373     
  -2.9044516984664179       0.83893354199451675       0.65450849718747373     
  -2.6906661873103777       0.83404043082533019       0.65450849718747373     
  -2.5177100756340045       0.83008182073409242       0.65450849718747373     
  -2.4516467195356526       0.82856976622744793       0.65450849718747373     
  -3.1208643995799203        1.0259738015532367       0.65450849718747373     
  -3.0566547861262081        1.0245954277718219       0.65450849718747373     
  -2.8885518356998965        1.0209867983628758       0.65450849718747373     
  -2.6807651617546986        1.0165262871078133       0.65450849718747373     
  -2.5126622113283870        1.0129176576988672       0.65450849718747373     
  -2.4484525978746747        1.0115392839174526       0.65450849718747373     
  -3.0929208992351742        1.2504061635719355       0.65450849718747373     
  -3.0310026377030264        1.2491930282541861       0.65450849718747373     
  -2.8688985244875589        1.2460169987593641       0.65450849718747373     
  -2.6685268211209179        1.2420912104052200       0.65450849718747373     
  -2.5064227079054491        1.2389151809103982       0.65450849718747373     
  -2.4445044463733017        1.2377020455926484       0.65450849718747373     
  -3.0703141325739534        1.4319757585327735       0.65450849718747373     
  -3.0102496136864447        1.4308963039402531       0.65450849718747373     
  -2.8529986617210374        1.4280702551277236       0.65450849718747373     
  -2.6586257955652401        1.4245770666877036       0.65450849718747373     
  -2.5013748435998324        1.4217510178751733       0.65450849718747373     
  -2.4413103247123238        1.4206715632826530       0.65450849718747373     
  -3.0616791160851049        1.5013291724842617       0.65450849718747373     
  -3.0023226638814533        1.5003007793851386       0.65450849718747373     
  -2.8469254545606857        1.4976084112978381       0.65450849718747373     
  -2.6548439403264519        1.4942804613214835       0.65450849718747373     
  -2.4994467310056838        1.4915880932341825       0.65450849718747373     
  -2.4400902788020322        1.4905597001350597       0.65450849718747373     
  -3.1521061827299901       0.77505079264091048       0.90450849718747373     
  -3.0853347599477816       0.77348767664086904       0.90450849718747373     
  -2.9105249056267697       0.76939538582440181       0.90450849718747373     
  -2.6944480425491646       0.76433703619154991       0.90450849718747373     
  -2.5196381882281527       0.76024474537508280       0.90450849718747373     
  -2.4528667654459442       0.75868162937504136       0.90450849718747373     
  -3.1434711662411416       0.84440420659239890       0.90450849718747373     
  -3.0774078101427902       0.84289215208575441       0.90450849718747373     
  -2.9044516984664179       0.83893354199451675       0.90450849718747373     
  -2.6906661873103777       0.83404043082533019       0.90450849718747373     
  -2.5177100756340045       0.83008182073409242       0.90450849718747373     
  -2.4516467195356526       0.82856976622744793       0.90450849718747373     
  -3.1208643995799203        1.0259738015532367       0.90450849718747373     
  -3.0566547861262081        1.0245954277718219       0.90450849718747373     
  -2.8885518356998965        1.0209867983628758       0.90450849718747373     
  -2.6807651617546986        1.0165262871078133       0.90450849718747373     
  -2.5126622113283870        1.0129176576988672       0.90450849718747373     
  -2.4484525978746747        1.0115392839174526       0.90450849718747373     
  -3.0929208992351742        1.2504061635719355       0.90450849718747373     
  -3.0310026377030264        1.2491930282541861       0.90450849718747373     
  -2.8688985244875589        1.2460169987593641       0.90450849718747373     
  -2.6685268211209179        1.2420912104052200       0.90450849718747373     
  -2.5064227079054491        1.2389151809103982       0.90450849718747373     
  -2.4445044463733017        1.2377020455926484       0.90450849718747373     
  -3.0703141325739534        1.4319757585327735       0.90450849718747373     
  -3.0102496136864447        1.4308963039402531       0.90450849718747373     
  -2.8529986617210374        1.4280702551277236       0.90450849718747373     
  -2.6586257955652401        1.4245770666877036       0.90450849718747373     
  -2.5013748435998324        1.4217510178751733       0.90450849718747373     
  -2.4413103247123238        1.4206715632826530       0.90450849718747373     
  -3.0616791160851049        1.5013291724842617       0.90450849718747373     
  -3.0023226638814533        1.5003007793851386       0.90450849718747373     
  -2.8469254545606857        1.4976084112978381       0.90450849718747373     
  -2.6548439403264519        1.4942804613214835       0.90450849718747373     
  -2.4994467310056838        1.4915880932341825       0.90450849718747373     
  -2.4400902788020322        1.4905597001350597       0.90450849718747373     
  -3.1521061827299901       0.77505079264091048        1.0000000000000000     
  -3.0853347599477816       0.77348767664086904        1.0000000000000000     
  -2.9105249056267697       0.76939538582440181        1.0000000000000000     
  -2.6944480425491646       0.76433703619154991        1.0000000000000000     
  -2.5196381882281527       0.76024474537508280        1.0000000000000000     
  -2.4528667654459442       0.75868162937504136        1.0000000000000000     
  -3.1434711662411416       0.84440420659239890        1.0000000000000000     
  -3.0774078101427902       0.84289215208575441        1.0000000000000000     
  -2.9044516984664179       0.83893354199451675        1.0000000000000000     
  -2.6906661873103777       0.83404043082533019        1.0000000000000000     
  -2.5177100756340045       0.83008182073409242        1.0000000000000000     
  -2.4516467195356526       0.82856976622744793        1.0000000000000000     
  -3.1208643995799203        1.0259738015532367        1.0000000000000000     
  -3.0566547861262081        1.0245954277718219        1.0000000000000000     
  -2.8885518356998965        1.0209867983628758        1.0000000000000000     
  -2.6807651617546986        1.0165262871078133        1.0000000000000000     
  -2.5126622113283870        1.0129176576988672        1.0000000000000000     
  -2.4484525978746747        1.0115392839174526        1.0000000000000000     
  -3.0929208992351742        1.2504061635719355        1.0000000000000000     
  -3.0310026377030264        1.2491930282541861        1.0000000000000000     
  -2.8688985244875589        1.2460169987593641        1.0000000000000000     
  -2.6685268211209179        1.2420912104052200        1.0000000000000000     
  -2.5064227079054491        1.2389151809103982        1.0000000000000000     
  -2.4445044463733017        1.2377020455926484        1.0000000000000000     
  -3.0703141325739534        1.4319757585327735        1.0000000000000000     
  -3.0102496136864447        1.4308963039402531        1.0000000000000000     
  -2.8529986617210374        1.4280702551277236        1.0000000000000000     
  -2.6586257955652401        1.4245770666877036        1.0000000000000000     
  -2.5013748435998324        1.4217510178751733        1.0000000000000000     
  -2.4413103247123238        1.4206715632826530        1.0000000000000000     
  -3.0616791160851049        1.5013291724842617        1.0000000000000000     
  -3.0023226638814533        1.5003007793851386        1.0000000000000000     
  -2.8469254545606857        1.4976084112978381        1.0000000000000000     
  -2.6548439403264519        1.4942804613214835        1.0000000000000000     
  -2.4994467310056838        1.4915880932341825        1.0000000000000000     
  -2.4400902788020322        1.4905597001350597        1.0000000000000000     
 ZONE I=           6 ,J=           6 ,K=           6 , F=POINT
  -2.4528667654459442       0.75868162937504136        0.0000000000000000     
  -2.3847064540061065       0.75827301013967208        0.0000000000000000     
  -2.2062604419728338       0.75720323109301813        0.0000000000000000     
  -1.9856890407859633       0.75588091147044889        0.0000000000000000     
  -1.8072430287526906       0.75481113242379516        0.0000000000000000     
  -1.7390827173128529       0.75440251318842588        0.0000000000000000     
  -2.4516467195356526       0.82856976622744793        0.0000000000000000     
  -2.3836311530222698       0.82832077317351382        0.0000000000000000     
  -2.2055640881261569       0.82766890089535194        0.0000000000000000     
  -1.9854610913606945       0.82686314244689618        0.0000000000000000     
  -1.8073940264645807       0.82621127016873419        0.0000000000000000     
  -1.7393784599511988       0.82596227711480008        0.0000000000000000     
  -2.4484525978746747        1.0115392839174526        0.0000000000000000     
  -2.3808159784984517        1.0117081976320101        0.0000000000000000     
  -2.2037410100873611        1.0121504194778890        0.0000000000000000     
  -1.9848643120176246        1.0126970357405303        0.0000000000000000     
  -1.8077893436065335        1.0131392575864089        0.0000000000000000     
  -1.7401527242303105        1.0133081713009666        0.0000000000000000     
  -2.4445044463733017        1.2377020455926484        0.0000000000000000     
  -2.3773362314184867        1.2383875204813195        0.0000000000000000     
  -2.2014875617031220        1.2401821170382952        0.0000000000000000     
  -1.9841266521820229        1.2424003603749043        0.0000000000000000     
  -1.8082779824666582        1.2441949569318800        0.0000000000000000     
  -1.7411097675118430        1.2448804318205511        0.0000000000000000     
  -2.4413103247123238        1.4206715632826530        0.0000000000000000     
  -2.3745210568946682        1.4217749449398160        0.0000000000000000     
  -2.1996644836643258        1.4246636356208322        0.0000000000000000     
  -1.9835298728389530        1.4282342536685384        0.0000000000000000     
  -1.8086732996086106        1.4311229443495539        0.0000000000000000     
  -1.7418840317909547        1.4322263260067176        0.0000000000000000     
  -2.4400902788020322        1.4905597001350597        0.0000000000000000     
  -2.3734457559108320        1.4918227079736579        0.0000000000000000     
  -2.1989681298176489        1.4951293054231660        0.0000000000000000     
  -1.9833019234136842        1.4992164846449854        0.0000000000000000     
  -1.8088242973205009        1.5025230820944935        0.0000000000000000     
  -1.7421797744293008        1.5037860899330917        0.0000000000000000     
  -2.4528667654459442       0.75868162937504136        9.5491502812526274E-002
  -2.3847064540061065       0.75827301013967208        9.5491502812526274E-002
  -2.2062604419728338       0.75720323109301813        9.5491502812526274E-002
  -1.9856890407859633       0.75588091147044889        9.5491502812526274E-002
  -1.8072430287526906       0.75481113242379516        9.5491502812526274E-002
  -1.7390827173128529       0.75440251318842588        9.5491502812526274E-002
  -2.4516467195356526       0.82856976622744793        9.5491502812526274E-002
  -2.3836311530222698       0.82832077317351382        9.5491502812526274E-002
  -2.2055640881261569       0.82766890089535194        9.5491502812526274E-002
  -1.9854610913606945       0.82686314244689618        9.5491502812526274E-002
  -1.8073940264645807       0.82621127016873419        9.5491502812526274E-002
  -1.7393784599511988       0.82596227711480008        9.5491502812526274E-002
  -2.4484525978746747        1.0115392839174526        9.5491502812526274E-002
  -2.3808159784984517        1.0117081976320101        9.5491502812526274E-002
  -2.2037410100873611        1.0121504194778890        9.5491502812526274E-002
  -1.9848643120176246        1.0126970357405303        9.5491502812526274E-002
  -1.8077893436065335        1.0131392575864089        9.5491502812526274E-002
  -1.7401527242303105        1.0133081713009666        9.5491502812526274E-002
  -2.4445044463733017        1.2377020455926484        9.5491502812526274E-002
  -2.3773362314184867        1.2383875204813195        9.5491502812526274E-002
  -2.2014875617031220        1.2401821170382952        9.5491502812526274E-002
  -1.9841266521820229        1.2424003603749043        9.5491502812526274E-002
  -1.8082779824666582        1.2441949569318800        9.5491502812526274E-002
  -1.7411097675118430        1.2448804318205511        9.5491502812526274E-002
  -2.4413103247123238        1.4206715632826530        9.5491502812526274E-002
  -2.3745210568946682        1.4217749449398160        9.5491502812526274E-002
  -2.1996644836643258        1.4246636356208322        9.5491502812526274E-002
  -1.9835298728389530        1.4282342536685384        9.5491502812526274E-002
  -1.8086732996086106        1.4311229443495539        9.5491502812526274E-002
  -1.7418840317909547        1.4322263260067176        9.5491502812526274E-002
  -2.4400902788020322        1.4905597001350597        9.5491502812526274E-002
  -2.3734457559108320        1.4918227079736579        9.5491502812526274E-002
  -2.1989681298176489        1.4951293054231660        9.5491502812526274E-002
  -1.9833019234136842        1.4992164846449854        9.5491502812526274E-002
  -1.8088242973205009        1.5025230820944935        9.5491502812526274E-002
  -1.7421797744293008        1.5037860899330917        9.5491502812526274E-002
  -2.4528667654459442       0.75868162937504136       0.34549150281252627     
  -2.3847064540061065       0.75827301013967208       0.34549150281252627     
  -2.2062604419728338       0.75720323109301813       0.34549150281252627     
  -1.9856890407859633       0.75588091147044889       0.34549150281252627     
  -1.8072430287526906       0.75481113242379516       0.34549150281252627     
  -1.7390827173128529       0.75440251318842588       0.34549150281252627     
  -2.4516467195356526       0.82856976622744793       0.34549150281252627     
  -2.3836311530222698       0.82832077317351382       0.34549150281252627     
  -2.2055640881261569       0.82766890089535194       0.34549150281252627     
  -1.9854610913606945       0.82686314244689618       0.34549150281252627     
  -1.8073940264645807       0.82621127016873419       0.34549150281252627     
  -1.7393784599511988       0.82596227711480008       0.34549150281252627     
  -2.4484525978746747        1.0115392839174526       0.34549150281252627     
  -2.3808159784984517        1.0117081976320101       0.34549150281252627     
  -2.2037410100873611        1.0121504194778890       0.34549150281252627     
  -1.9848643120176246        1.0126970357405303       0.34549150281252627     
  -1.8077893436065335        1.0131392575864089       0.34549150281252627     
  -1.7401527242303105        1.0133081713009666       0.34549150281252627     
  -2.4445044463733017        1.2377020455926484       0.34549150281252627     
  -2.3773362314184867        1.2383875204813195       0.34549150281252627     
  -2.2014875617031220        1.2401821170382952       0.34549150281252627     
  -1.9841266521820229        1.2424003603749043       0.34549150281252627     
  -1.8082779824666582        1.2441949569318800       0.34549150281252627     
  -1.7411097675118430        1.2448804318205511       0.34549150281252627     
  -2.4413103247123238        1.4206715632826530       0.34549150281252627     
  -2.3745210568946682        1.4217749449398160       0.34549150281252627     
  -2.1996644836643258        1.4246636356208322       0.34549150281252627     
  -1.9835298728389530        1.4282342536685384       0.34549150281252627     
  -1.8086732996086106        1.4311229443495539       0.34549150281252627     
  -1.7418840317909547        1.4322263260067176       0.34549150281252627     
  -2.4400902788020322        1.4905597001350597       0.34549150281252627     
  -2.3734457559108320        1.4918227079736579       0.34549150281252627     
  -2.1989681298176489        1.4951293054231660       0.34549150281252627     
  -1.9833019234136842        1.4992164846449854       0.34549150281252627     
  -1.8088242973205009        1.5025230820944935       0.34549150281252627     
  -1.7421797744293008        1.5037860899330917       0.34549150281252627     
  -2.4528667654459442       0.75868162937504136       0.65450849718747373     
  -2.3847064540061065       0.75827301013967208       0.65450849718747373     
  -2.2062604419728338       0.75720323109301813       0.65450849718747373     
  -1.9856890407859633       0.75588091147044889       0.65450849718747373     
  -1.8072430287526906       0.75481113242379516       0.65450849718747373     
  -1.7390827173128529       0.75440251318842588       0.65450849718747373     
  -2.4516467195356526       0.82856976622744793       0.65450849718747373     
  -2.3836311530222698       0.82832077317351382       0.65450849718747373     
  -2.2055640881261569       0.82766890089535194       0.65450849718747373     
  -1.9854610913606945       0.82686314244689618       0.65450849718747373     
  -1.8073940264645807       0.82621127016873419       0.65450849718747373     
  -1.7393784599511988       0.82596227711480008       0.65450849718747373     
  -2.4484525978746747        1.0115392839174526       0.65450849718747373     
  -2.3808159784984517        1.0117081976320101       0.65450849718747373     
  -2.2037410100873611        1.0121504194778890       0.65450849718747373     
  -1.9848643120176246        1.0126970357405303       0.65450849718747373     
  -1.8077893436065335        1.0131392575864089       0.65450849718747373     
  -1.7401527242303105        1.0133081713009666       0.65450849718747373     
  -2.4445044463733017        1.2377020455926484       0.65450849718747373     
  -2.3773362314184867        1.2383875204813195       0.65450849718747373     
  -2.2014875617031220        1.2401821170382952       0.65450849718747373     
  -1.9841266521820229        1.2424003603749043       0.65450849718747373     
  -1.8082779824666582        1.2441949569318800       0.65450849718747373     
  -1.7411097675118430        1.2448804318205511       0.65450849718747373     
  -2.4413103247123238        1.4206715632826530       0.65450849718747373     
  -2.3745210568946682        1.4217749449398160       0.65450849718747373     
  -2.1996644836643258        1.4246636356208322       0.65450849718747373     
  -1.9835298728389530        1.4282342536685384       0.65450849718747373     
  -1.8086732996086106        1.4311229443495539       0.65450849718747373     
  -1.7418840317909547        1.4322263260067176       0.65450849718747373     
  -2.4400902788020322        1.4905597001350597       0.65450849718747373     
  -2.3734457559108320        1.4918227079736579       0.65450849718747373     
  -2.1989681298176489        1.4951293054231660       0.65450849718747373     
  -1.9833019234136842        1.4992164846449854       0.65450849718747373     
  -1.8088242973205009        1.5025230820944935       0.65450849718747373     
  -1.7421797744293008        1.5037860899330917       0.65450849718747373     
  -2.4528667654459442       0.75868162937504136       0.90450849718747373     
  -2.3847064540061065       0.75827301013967208       0.90450849718747373     
  -2.2062604419728338       0.75720323109301813       0.90450849718747373     
  -1.9856890407859633       0.75588091147044889       0.90450849718747373     
  -1.8072430287526906       0.75481113242379516       0.90450849718747373     
  -1.7390827173128529       0.75440251318842588       0.90450849718747373     
  -2.4516467195356526       0.82856976622744793       0.90450849718747373     
  -2.3836311530222698       0.82832077317351382       0.90450849718747373     
  -2.2055640881261569       0.82766890089535194       0.90450849718747373     
  -1.9854610913606945       0.82686314244689618       0.90450849718747373     
  -1.8073940264645807       0.82621127016873419       0.90450849718747373     
  -1.7393784599511988       0.82596227711480008       0.90450849718747373     
  -2.4484525978746747        1.0115392839174526       0.90450849718747373     
  -2.3808159784984517        1.0117081976320101       0.90450849718747373     
  -2.2037410100873611        1.0121504194778890       0.90450849718747373     
  -1.9848643120176246        1.0126970357405303       0.90450849718747373     
  -1.8077893436065335        1.0131392575864089       0.90450849718747373     