 VARIABLES = "X", "Y", "Z", "Material ID"
 ZONE F=FEPOINT, ET=QUADRILATERAL, N=          36 E=          25
   0.0000000000000000        0.0000000000000000        0.0000000000000000                1
   1.0000000000000000        0.0000000000000000        0.0000000000000000                1
   2.0000000000000000        0.0000000000000000        0.0000000000000000                1
   3.0000000000000000        0.0000000000000000        0.0000000000000000                1
   4.0000000000000000        0.0000000000000000        0.0000000000000000                1
   5.0000000000000000        0.0000000000000000        0.0000000000000000                1
   0.0000000000000000        1.0000000000000000        0.0000000000000000                1
   1.0000000000000000        1.0000000000000000        0.0000000000000000                1
   2.0000000000000000        1.0000000000000000        0.0000000000000000                1
   3.0000000000000000        1.0000000000000000        0.0000000000000000                1
   4.0000000000000000        1.0000000000000000        0.0000000000000000                1
   5.0000000000000000        1.0000000000000000        0.0000000000000000                1
   0.0000000000000000        2.0000000000000000        0.0000000000000000                1
   1.0000000000000000        2.0000000000000000        0.0000000000000000                1
   2.0000000000000000        2.0000000000000000        0.0000000000000000                1
   3.0000000000000000        2.0000000000000000        0.0000000000000000                1
   4.0000000000000000        2.0000000000000000        0.0000000000000000                1
   5.0000000000000000        2.0000000000000000        0.0000000000000000                1
   0.0000000000000000        3.0000000000000000        0.0000000000000000                1
   1.0000000000000000        3.0000000000000000        0.0000000000000000                1
   2.0000000000000000        3.0000000000000000        0.0000000000000000                1
   3.0000000000000000        3.0000000000000000        0.0000000000000000                1
   4.0000000000000000        3.0000000000000000        0.0000000000000000                1
   5.0000000000000000        3.0000000000000000        0.0000000000000000                1
   0.0000000000000000        4.0000000000000000        0.0000000000000000                1
   1.0000000000000000        4.0000000000000000        0.0000000000000000                1
   2.0000000000000000        4.0000000000000000        0.0000000000000000                1
   3.0000000000000000        4.0000000000000000        0.0000000000000000                1
   4.0000000000000000        4.0000000000000000        0.0000000000000000                1
   5.0000000000000000        4.0000000000000000        0.0000000000000000                1
   0.0000000000000000        5.0000000000000000        0.0000000000000000                1
   1.0000000000000000        5.0000000000000000        0.0000000000000000                1
   2.0000000000000000        5.0000000000000000        0.0000000000000000                1
   3.0000000000000000        5.0000000000000000        0.0000000000000000                1
   4.0000000000000000        5.0000000000000000        0.0000000000000000                1
   5.0000000000000000        5.0000000000000000        0.0000000000000000                1
           1           2           8           7
           2           3           9           8
           3           4          10           9
           4           5          11          10
           5           6          12          11
           7           8          14          13
           8           9          15          14
           9          10          16          15
          10          11          17          16
          11          12          18          17
          13          14          20          19
          14          15          21          20
          15          16          22          21
          16          17          23          22
          17          18          24          23
          19          20          26          25
          20          21          27          26
          21          22          28          27
          22          23          29          28
          23          24          30          29
          25          26          32          31
          26          27          33          32
          27          28          34          33
          28          29          35          34
          29          30          36          35
