 VARIABLES = "X", "Y", "Z", "Material ID"
 ZONE F=FEPOINT, ET=QUADRILATERAL, N=        1026 E=         973
  -4.6026821845388293       -12.660789402338784        0.0000000000000000                1
  -3.9669259314206657       -12.686629676285202        0.0000000000000000                1
  -3.0515669889176382       -12.779486693439180        0.0000000000000000                1
  -2.0602569317429724       -12.877411658892283        0.0000000000000000                1
  -1.0366844249578422       -12.944782896012596        0.0000000000000000                1
   9.9597030956978275E-005  -12.968315875888065        0.0000000000000000                1
   1.0372699788964250       -12.944508389204415        0.0000000000000000                1
   2.0629101770067959       -12.876134150703850        0.0000000000000000                1
   3.0616409576425649       -12.774661076723914        0.0000000000000000                1
   3.9989629901307979       -12.671366401144937        0.0000000000000000                1
   4.6836221066687811       -12.623284633754361        0.0000000000000000                1
  -6.6630655133981271       -11.705217409746290        0.0000000000000000                1
  -6.0366070536896057       -11.802620271293902        0.0000000000000000                1
  -5.0267208222384001       -12.052809809547114        0.0000000000000000                1
  -3.9767260225979633       -11.896269173702665        0.0000000000000000                1
  -3.0133120561211699       -11.899947190300663        0.0000000000000000                1
  -2.0235635547594879       -11.934255146742615        0.0000000000000000                1
  -1.0156822417114209       -11.963518465394579        0.0000000000000000                1
   1.6648475846635819E-004  -11.974313180512913        0.0000000000000000                1
   1.0165771299921398       -11.963043434913596        0.0000000000000000                1
   2.0274337470543551       -11.932275896680460        0.0000000000000000                1
   3.0276785662072960       -11.892854619757749        0.0000000000000000                1
   4.0222150774205154       -11.873900489616847        0.0000000000000000                1
   5.1659031716316219       -11.984096732727975        0.0000000000000000                1
   6.2508630500052051       -11.686595674226583        0.0000000000000000                1
   6.8964620832322012       -11.567179836236145        0.0000000000000000                1
  -7.7865031602209287       -10.886445146385483        0.0000000000000000                1
  -7.0302838750012269       -11.085931794477878        0.0000000000000000                1
  -5.9947093422749376       -10.970785038732590        0.0000000000000000                1
  -5.0112064431710506       -10.984078661778456        0.0000000000000000                1
  -4.0059107323356784       -10.979086219911947        0.0000000000000000                1
  -3.0062464048981030       -10.969289701074947        0.0000000000000000                1
  -2.0085632851859270       -10.976601660545777        0.0000000000000000                1
  -1.0057410499957957       -10.986185913374561        0.0000000000000000                1
   2.5400782759448372E-004  -10.989920781446367        0.0000000000000000                1
   1.0067119893747631       -10.985367094164840        0.0000000000000000                1
   2.0119970729134375       -10.974243916713245        0.0000000000000000                1
   3.0180866892105196       -10.962662395789781        0.0000000000000000                1
   4.0402583997478940       -10.960930722549676        0.0000000000000000                1
   5.0848872131718990       -10.943776815928901        0.0000000000000000                1
   6.1166653095284369       -10.898078099182930        0.0000000000000000                1
   7.2249003367949483       -10.956588451442521        0.0000000000000000                1
   8.0022108504956897       -10.726340037896470        0.0000000000000000                1
  -8.8952968938448986       -9.9388653279763677        0.0000000000000000                1
  -8.1254992375777917       -10.187969233910028        0.0000000000000000                1
  -7.0232480292716257       -10.053482013419572        0.0000000000000000                1
  -6.0154264617507840       -10.021026049329652        0.0000000000000000                1
  -5.0101186302521930       -10.005225404630089        0.0000000000000000                1
  -4.0077236313280089       -10.002411473211270        0.0000000000000000                1
  -3.0055842650786926       -10.002252598336526        0.0000000000000000                1
  -2.0041421775984603       -10.005317589998684        0.0000000000000000                1
  -1.0021753838687792       -10.009151169123292        0.0000000000000000                1
   5.4519515145465909E-004  -10.010005071984114        0.0000000000000000                1
   1.0034508204823278       -10.006758046179193        0.0000000000000000                1
   2.0066217615636948       -10.000970567211942        0.0000000000000000                1
   3.0122949187254604       -9.9955339856558130        0.0000000000000000                1
   4.0245741388038798       -9.9905469670092959        0.0000000000000000                1
   5.0455220995179948       -9.9823368315361733        0.0000000000000000                1
   6.0810249603639273       -9.9765487587684323        0.0000000000000000                1
   7.1320787328940538       -9.9722459931206995        0.0000000000000000                1
   8.3060354481968890       -10.038168382467326        0.0000000000000000                1
   9.0950453225850190       -9.7545913926670789        0.0000000000000000                1
  -9.9388673896239705       -8.8953084550186041        0.0000000000000000                1
  -9.1916870932976309       -9.1917061922098195        0.0000000000000000                1
  -8.0675338152967377       -9.0845809556712762        0.0000000000000000                1
  -7.0382728013492573       -9.0532138629488745        0.0000000000000000                1
  -6.0188336842512546       -9.0272395083789974        0.0000000000000000                1
  -5.0123670794447532       -9.0198741150681272        0.0000000000000000                1
  -4.0087221347743336       -9.0228073327653764        0.0000000000000000                1
  -3.0053800485406730       -9.0323581238270858        0.0000000000000000                1
  -2.0028268725800080       -9.0448960891372021        0.0000000000000000                1
  -1.0009955321132418       -9.0539443821789352        0.0000000000000000                1
   7.9571752703992335E-004  -9.0539851851008422        0.0000000000000000                1
   1.0027351871526036       -9.0446626675462749        0.0000000000000000                1
   2.0055344686859020       -9.0309575117286904        0.0000000000000000                1
   3.0097698252251099       -9.0189106201589144        0.0000000000000000                1
   4.0157391574486692       -9.0101257085543320        0.0000000000000000                1
   5.0263539214740574       -9.0039019683572796        0.0000000000000000                1
   6.0484423136552463       -9.0008241713430515        0.0000000000000000                1
   7.0960969581014259       -9.0029805825526577        0.0000000000000000                1
   8.1662288570156640       -8.9924232785235727        0.0000000000000000                1
   9.3553654464152327       -9.0231546402120699        0.0000000000000000                1
   10.117143813447447       -8.6913424188914679        0.0000000000000000                1
  -10.886458182824306       -7.7865176796664670        0.0000000000000000                1
  -10.187990436323547       -8.1255437070442014        0.0000000000000000                1
  -9.0845729720110935       -8.0676648893603780        0.0000000000000000                1
  -8.0567746598912784       -8.0570332660384185        0.0000000000000000                1
  -7.0313154852361182       -8.0371473220121903        0.0000000000000000                1
  -6.0210340220958400       -8.0318542277620573        0.0000000000000000                1
  -5.0184645311852991       -8.0416491421343999        0.0000000000000000                1
  -4.0121649833104298       -8.0594075238207878        0.0000000000000000                1
  -2.9986085008919590       -8.0910730024687894        0.0000000000000000                1
  -1.9929744945608328       -8.1398065768620125        0.0000000000000000                1
 -0.99708928641800798       -8.1727486805009271        0.0000000000000000                1
  -2.0633352376152334E-003  -8.1726123818770766        0.0000000000000000                1
  0.99394883673410017       -8.1393105560073060        0.0000000000000000                1
   1.9995093926568135       -8.0899996611082585        0.0000000000000000                1
   3.0125961142365081       -8.0571489365705382        0.0000000000000000                1
   4.0183273737333813       -8.0363114733779213        0.0000000000000000                1
   5.0202031636319857       -8.0191720330881004        0.0000000000000000                1
   6.0303745464219496       -8.0109028324860834        0.0000000000000000                1
   7.0560766472831817       -8.0071042314981167        0.0000000000000000                1
   8.1079868774175097       -8.0007723597435803        0.0000000000000000                1
   9.1724957301938446       -7.9654825931956008        0.0000000000000000                1
   10.331519074318475       -7.9417493848820362        0.0000000000000000                1
   11.039532930459034       -7.5678640843140164        0.0000000000000000                1
  -11.705231565314902       -6.6630751808623856        0.0000000000000000                1
  -11.085976263937352       -7.0303222134559471        0.0000000000000000                1
  -10.053584442394110       -7.0233860758577729        0.0000000000000000                1
  -9.0532563916554523       -7.0386668524402189        0.0000000000000000                1
  -8.0366310802964200       -7.0323663859244512        0.0000000000000000                1
  -7.0294261590491454       -7.0318653732198984        0.0000000000000000                1
  -6.0263042434902028       -7.0436528867434651        0.0000000000000000                1
  -5.0277497179359862       -7.0880766722623143        0.0000000000000000                1
  -4.0395049911407099       -7.1561037222845458        0.0000000000000000                1
  -2.9504187922741605       -7.1539293946516755        0.0000000000000000                1
  -1.9390669800774150       -7.3801346379363650        0.0000000000000000                1
 -0.98643535396830873       -7.4362757941242084        0.0000000000000000                1
  -1.1024169725302117E-002  -7.4359920440639184        0.0000000000000000                1
  0.94211306188540400       -7.3793047141118873        0.0000000000000000                1
   1.9542953499968942       -7.1524039202041623        0.0000000000000000                1
   3.0410870283519764       -7.1544974731108359        0.0000000000000000                1
   4.0276055167510885       -7.0853611158197012        0.0000000000000000                1
   5.0244798324537037       -7.0377360077625735        0.0000000000000000                1
   6.0258940215522543       -7.0193757854883057        0.0000000000000000                1
   7.0338412682991898       -7.0096656428830473        0.0000000000000000                1
   8.0570137507764645       -6.9996478316119308        0.0000000000000000                1
   9.0983792055230328       -6.9764636076605102        0.0000000000000000                1
   10.131303583218257       -6.9096107726781799        0.0000000000000000                1
   11.211972738625425       -6.8265526711558842        0.0000000000000000                1
   11.844702716952387       -6.4095512422700702        0.0000000000000000                1
  -11.802660074101537       -6.0366301078920284        0.0000000000000000                1
  -10.970943363891337       -5.9948125008279600        0.0000000000000000                1
  -10.021398813425904       -6.0157205765702226        0.0000000000000000                1
  -9.0273302239011759       -6.0193293270992481        0.0000000000000000                1
  -8.0298776207977927       -6.0228409755328496        0.0000000000000000                1
  -7.0371398855148017       -6.0336964204266108        0.0000000000000000                1
  -6.0541636562285932       -6.0702908118432353        0.0000000000000000                1
  -5.0043918495938762       -6.1056266344041683        0.0000000000000000                1
  -4.0681953737584609       -6.4202708491851475        0.0000000000000000                1
  -3.3004252963527834       -6.4964621449587305        0.0000000000000000                1
  -1.9220349087638471       -6.3425402417530625        0.0000000000000000                2
 -0.98088828860892507       -6.4821868573714214        0.0000000000000000                2
  -1.0373065820248661E-002  -6.4815326478639097        0.0000000000000000                2
  0.93674061676906595       -6.3392252208078279        0.0000000000000000                2
   2.3076715155660819       -6.4937407449485436        0.0000000000000000                1
   3.0717812470641221       -6.4183677225891964        0.0000000000000000                1
   4.0054895722099513       -6.1040065679532693        0.0000000000000000                1
   5.0530741113090745       -6.0679038501932450        0.0000000000000000                1
   6.0346511671188576       -6.0285669537848614        0.0000000000000000                1
   7.0272986685744758       -6.0126890078822077        0.0000000000000000                1
   8.0310623472131404       -6.0017488693198278        0.0000000000000000                1
   9.0455285378542225       -5.9833656571613139        0.0000000000000000                1
   10.063341743020473       -5.9417331964827493        0.0000000000000000                1
   11.044699445972439       -5.8551217869502077        0.0000000000000000                1
   11.918835559185599       -5.8022194553524153        0.0000000000000000                1
  -12.660805641102483       -4.6026891509379881        0.0000000000000000                1
  -12.052900714523000       -5.0267638429842423        0.0000000000000000                1
  -10.984502856787659       -5.0114192078964086        0.0000000000000000                1
  -10.006470970716034       -5.0107184839690593        0.0000000000000000                1
  -9.0216288255110424       -5.0127618707686254        0.0000000000000000                1
  -8.0356889516167875       -5.0146811547826839        0.0000000000000000                1
  -7.0653271551602597       -5.0383175541148999        0.0000000000000000                1
  -6.0729159099840242       -5.0600116565758588        0.0000000000000000                1
  -5.3007675469189275       -5.3392840952290541        0.0000000000000000                1
  -4.1520483593672122       -5.3770384767865709        0.0000000000000000                2
  -3.3826762800819097       -5.8258198963110006        0.0000000000000000                2
  -2.5387730307151606       -6.1719854608730671        0.0000000000000000                2
 -0.90581332560462091       -5.4036178257906320        0.0000000000000000                2
  -8.5377132290384419E-002  -5.4024390836377041        0.0000000000000000                2
   1.5598482218375911       -6.1649838039521656        0.0000000000000000                2
   2.3967155500377446       -5.8188520364561196        0.0000000000000000                2
   3.1597440431189052       -5.3718035648053712        0.0000000000000000                2
   4.3018196449432891       -5.3382431016007370        0.0000000000000000                1
   5.0722330160012481       -5.0598473349071735        0.0000000000000000                1
   6.0637948531564358       -5.0368447061523858        0.0000000000000000                1
   7.0342984484739866       -5.0105317140018979        0.0000000000000000                1
   8.0238660381625539       -5.0037480494643995        0.0000000000000000                1
   9.0226704412234309       -4.9912627743166267        0.0000000000000000                1
   10.026073030727872       -4.9623734786141469        0.0000000000000000                1
   11.030345787399263       -4.9044763101740587        0.0000000000000000                1
   12.140682517593309       -4.8057439256603596        0.0000000000000000                1
   12.760010374891504       -4.3112920421894172        0.0000000000000000                1
  -12.686662890581877       -3.9669379631272945        0.0000000000000000                1
  -11.896474936018793       -3.9768044736858075        0.0000000000000000                1
  -10.980030586802487       -4.0062813618502036        0.0000000000000000                1
  -10.005698935016941       -4.0089194946330711        0.0000000000000000                1
  -9.0315021416156185       -4.0105170705872721        0.0000000000000000                1
  -8.0734434353122868       -4.0058447187606960        0.0000000000000000                1
  -7.0788078161251144       -3.9558994330194244        0.0000000000000000                1
  -6.3242892115123643       -4.2536476621017982        0.0000000000000000                1
  -5.3588677611326228       -4.3175692327774033        0.0000000000000000                2
  -4.7769023133576027       -4.8947018910242521        0.0000000000000000                2
  -3.1273577350917670       -4.3369791886138707        0.0000000000000000                2
  -2.2438644248638915       -4.2765383913522284        0.0000000000000000                2
  -1.1861491414664296       -4.5152390739303021        0.0000000000000000                2
  0.17888900936915758       -4.5206043044178168        0.0000000000000000                2
   1.2337380023813578       -4.2844296383637541        0.0000000000000000                2
   2.1351144461220399       -4.3535044086558798        0.0000000000000000                2
   3.7857658696085394       -4.8869429003108431        0.0000000000000000                2
   4.3622238324357712       -4.3137894481874746        0.0000000000000000                2
   5.3225144703548919       -4.2560048836266562        0.0000000000000000                1
   6.0773795747559598       -3.9569934428906985        0.0000000000000000                1
   7.0727016197745733       -4.0043675485098031        0.0000000000000000                1
   8.0331409231411666       -4.0057169950292968        0.0000000000000000                1
   9.0160205031749214       -3.9963651125469246        0.0000000000000000                1
   10.011029327294922       -3.9754762521247802        0.0000000000000000                1
   11.006313746604501       -3.9254031115266743        0.0000000000000000                1
   11.948547010970120       -3.8094281790149260        0.0000000000000000                1
   12.772739480766928       -3.6695661890541311        0.0000000000000000                1
  -12.779543040690033       -3.0515829188504897        0.0000000000000000                1
  -11.900308062700631       -3.0134178273752417        0.0000000000000000                1
  -10.971036576942536       -3.0067723588240538        0.0000000000000000                1
  -10.008870833435351       -3.0075503423637304        0.0000000000000000                1
  -9.0531261499620115       -3.0108459947998125        0.0000000000000000                1
  -8.1504577638335949       -3.0093120734414236        0.0000000000000000                1
  -7.3902618953611068       -2.9696149289747686        0.0000000000000000                1
  -6.2705770026537238       -2.9917287738770639        0.0000000000000000                2
  -5.8943534514795397       -3.6264239741804567        0.0000000000000000                2
  -4.3227981337718058       -3.4180815494947279        0.0000000000000000                2
  -3.2898461436252524       -3.2164251354599642        0.0000000000000000                2
  -2.1338566273610597       -3.3392627146854856        0.0000000000000000                2
  -1.0429089794992707       -3.0421338044647639        0.0000000000000000                2
   2.7798644301303389E-002  -3.3487013031255670        0.0000000000000000                2
   1.0248032066532073       -3.1353496760628379        0.0000000000000000                2
   2.3545450298197359       -3.4040206030511979        0.0000000000000000                2
   3.3162338835236618       -3.2651626108789080        0.0000000000000000                2
   4.8789529152066180       -3.6492280739891036        0.0000000000000000                2
   5.2633557556189210       -3.0056164815515394        0.0000000000000000                2
   6.3891947222319949       -2.9710876036931726        0.0000000000000000                1
   7.1501001827870860       -3.0089725645811218        0.0000000000000000                1
   8.0546674423440603       -3.0082063262243026        0.0000000000000000                1
   9.0177878650323251       -2.9993792421062686        0.0000000000000000                1
   10.003315618673112       -2.9836482226859409        0.0000000000000000                1
   10.984214319352468       -2.9465903200323424        0.0000000000000000                1
   11.934282233087275       -2.8734913423279318        0.0000000000000000                1
   12.844235778074500       -2.7629002402186016        0.0000000000000000                1
  -12.877494617429990       -2.0602743751319919        0.0000000000000000                1
  -11.934798725784901       -2.0236762420294268        0.0000000000000000                1
  -10.979319573455905       -2.0091411083202018        0.0000000000000000                1
  -10.015919413111988       -2.0064997842078083        0.0000000000000000                1
  -9.0780675961822546       -2.0109263963414890        0.0000000000000000                1
  -8.2257511877844269       -2.0189708284166357        0.0000000000000000                1
  -7.5285288600800797       -2.0282425044231327        0.0000000000000000                1
  -6.6456618974434338       -2.1167994336525999        0.0000000000000000                2
  -5.4324839592096748       -2.0121315958331705        0.0000000000000000                2
  -4.2294169463174658       -2.1586467410421655        0.0000000000000000                2
  -3.1088140153175932       -2.1926324560005463        0.0000000000000000                2
  -2.0307283847753039       -2.0829080641076709        0.0000000000000000                2
  -1.0084353980472118       -2.1478119932323469        0.0000000000000000                2
   1.2239369989994748E-002  -2.0547111866573173        0.0000000000000000                2
   1.1833177633365977       -2.2025558465389916        0.0000000000000000                2
   2.1039839825677853       -2.0480502900863775        0.0000000000000000                2
   3.4345664674430942       -2.2850983797596967        0.0000000000000000                2
   4.3254941211281075       -2.0066943871949645        0.0000000000000000                2
   5.6430267853792015       -2.1244344927800598        0.0000000000000000                2
   6.5278190038335770       -2.0294429804119529        0.0000000000000000                1
   7.2256609892699766       -2.0189681190768640        0.0000000000000000                1
   8.0795502530061540       -2.0094230155410053        0.0000000000000000                1
   9.0230902142405043       -2.0007718207657184        0.0000000000000000                1
   10.001637534772620       -1.9897645656156207        0.0000000000000000                1
   10.984086766094128       -1.9665090375077521        0.0000000000000000                1
   11.954765144298836       -1.9205219888676714        0.0000000000000000                1
   12.916536569999826       -1.8409480655802100        0.0000000000000000                1
  -12.944894460985470       -1.0367087966593160        0.0000000000000000                1
  -11.964234860094528       -1.0157827691745498        0.0000000000000000                1
  -10.989800954300875       -1.0061942697933643        0.0000000000000000                1
  -10.023361392892717       -1.0040171400295936        0.0000000000000000                1
  -9.0971531456973675       -1.0073094502351285        0.0000000000000000                1
  -8.2729395686072102       -1.0159433934597653        0.0000000000000000                1
  -7.6189936296654990       -1.0307570001464097        0.0000000000000000                1
  -6.9039744142113975       -1.1131539435881230        0.0000000000000000                2
  -5.0103893665869084       -1.0439093595483702        0.0000000000000000                2
  -4.1790502869486899       -1.0391016484968014        0.0000000000000000                2
  -3.0149790147166931       -1.0067944210101698        0.0000000000000000                2
  -2.0111658339078398       -1.2648246982241964        0.0000000000000000                2
 -0.99280381534557260       -1.2652597499233795        0.0000000000000000                2
  -2.0641439844962346E-003 -0.99926718625698929        0.0000000000000000                2
   1.0407095648663907       -1.0158455315692991        0.0000000000000000                2
   2.2583637672854491       -1.0389692980686507        0.0000000000000000                2
   3.2336033117116729       -1.0659666197481010        0.0000000000000000                2
   4.2224657611309606       -1.0545602338876490        0.0000000000000000                2
   5.9038495009252419       -1.1138723308797673        0.0000000000000000                2
   6.6186658136283949       -1.0312333383130365        0.0000000000000000                1
   7.2730083971722861       -1.0159183592162964        0.0000000000000000                1
   8.0983802936223181       -1.0064811115017460        0.0000000000000000                1
   9.0282446883115099       -1.0004880725018512        0.0000000000000000                1
   10.002960313719685      -0.99383233695334217        0.0000000000000000                1
   10.988910420748823      -0.98069865493394925        0.0000000000000000                1
   11.973302863227831      -0.95787679127277758        0.0000000000000000                1
   12.960251647675243      -0.93821822874326688        0.0000000000000000                1
  -12.968480319111714       -1.1032287155268380E-009   0.0000000000000000                1
  -11.975184106407964       -1.4513885310389918E-008   0.0000000000000000                1
  -10.994109020271368       -1.3561404045235331E-007   0.0000000000000000                1
  -10.026440700061999       -8.8547266616728116E-007   0.0000000000000000                1
  -9.1042457329970059       -4.0801668146091730E-006   0.0000000000000000                1
  -8.2900733172915366       -1.3816528105327363E-005   0.0000000000000000                1
  -7.6529215426989676       -3.5445484780505774E-005   0.0000000000000000                1
  -6.9999999991439541       -1.0549219189472014E-004   0.0000000000000000                2
  -5.2390233869545462       -6.9575266842514759E-004   0.0000000000000000                2
  -4.1163020884497001       -3.1463968952317868E-003   0.0000000000000000                2
  -3.2727109615795063       -8.0642546045676198E-003   0.0000000000000000                2
  -1.9987096144662231        1.3069476405540821E-003   0.0000000000000000                3
  -1.0012966244066046        1.3242695137256418E-003   0.0000000000000000                3
  0.26352955699469072       -7.8160685951336670E-003   0.0000000000000000                2
   1.1221624312648535       -9.7859527201501996E-004   0.0000000000000000                2
   1.9482799529107180        5.2340761082835720E-003   0.0000000000000000                2
   3.1834903193146298        6.4315436355830598E-003   0.0000000000000000                2
   4.1988793234262927        3.6853226961410177E-003   0.0000000000000000                2
   5.9999999742386612        5.7870320742976398E-004   0.0000000000000000                2
   6.6527451141326592        1.6961349247987531E-004   0.0000000000000000                1
   7.2901842561726324        1.2817165293166913E-004   0.0000000000000000                1
   8.1052976686376983        2.9002500141025360E-004   0.0000000000000000                1
   9.0302381905189915        1.1955444919655952E-003   0.0000000000000000                1
   10.003411700890124        4.2816557089925700E-003   0.0000000000000000                1
   10.990042698943954        1.1725488705097287E-002   0.0000000000000000                1
   11.977710799814934        2.2950272984385827E-002   0.0000000000000000                1
   12.971952903009246        2.3184908540241047E-002   0.0000000000000000                1
  -12.944894461880688        1.0367087941108919        0.0000000000000000                1
  -11.964234873222519        1.0157827340967187        0.0000000000000000                1
  -10.989801092351881        1.0061939214696161        0.0000000000000000                1
  -10.023362408341262        1.0040146890330006        0.0000000000000000                1
  -9.0971583334628612        1.0072972574207777        0.0000000000000000                1
  -8.2729588861971077        1.0158984630900578        0.0000000000000000                1
  -7.6190487540997829        1.0306255153546098        0.0000000000000000                1
  -6.9040632062129275        1.1126430024180227        0.0000000000000000                2
  -5.0172308643425927        1.0413180224313754        0.0000000000000000                2
  -4.2028019954256353        1.0332619132106382        0.0000000000000000                2