 VARIABLES = "X", "Y", "Z"
 ZONE F=FEPOINT, ET=BRICK, N=        3381 E=        2688
 -0.43508008911203638      -0.70331477838838197        0.0000000000000000     
 -0.25530597564784485      -0.71942907775197196        0.0000000000000000     
  -5.3921496866024666E-008 -0.73131318513525234        0.0000000000000000     
  0.25530591223967036      -0.71942907775128029        0.0000000000000000     
  0.43508007654726044      -0.70331477838735645        0.0000000000000000     
 -0.70331483149938367      -0.43508003023129260        0.0000000000000000     
 -0.52004321166102074      -0.52004314242523375        0.0000000000000000     
 -0.24942725595759799      -0.49372472411551999        0.0000000000000000     
  -1.4848869290711699E-008 -0.49217001908673458        0.0000000000000000     
  0.24942723417184118      -0.49372472411065049        0.0000000000000000     
  0.52004320432898821      -0.52004314241473837        0.0000000000000000     
  0.70331483056103417      -0.43508003021687675        0.0000000000000000     
 -0.71942909231312080      -0.25530593012903108        0.0000000000000000     
 -0.49372474240877634      -0.24942722844722140        0.0000000000000000     
 -0.25091281071487564      -0.25091279917819220        0.0000000000000000     
  -3.1930031971631843E-009 -0.24919779293019431        0.0000000000000000     
  0.25091280568268509      -0.25091279914448150        0.0000000000000000     
  0.49372474000467936      -0.24942722838269860        0.0000000000000000     
  0.71942909167020208      -0.25530593003835644        0.0000000000000000     
 -0.73131318938269863        1.2085512801132469E-009   0.0000000000000000     
 -0.49217002458828801        1.6345432242932236E-009   0.0000000000000000     
 -0.24919779672114539        1.1577553306236522E-009   0.0000000000000000     
  -5.8786921072370141E-010   8.5034683759218265E-010   0.0000000000000000     
  0.24919779565514716        1.3578883863897285E-009   0.0000000000000000     
  0.49217002380366826        1.9811481666605274E-009   0.0000000000000000     
  0.73131318897063335        1.5583716858924737E-009   0.0000000000000000     
 -0.71942908552534368       0.25530593689418918        0.0000000000000000     
 -0.49372473357598151       0.24942723670636668        0.0000000000000000     
 -0.25091280453360559       0.25091280387231912        0.0000000000000000     
  -5.5049885253451651E-010  0.24919779545018164        0.0000000000000000     
  0.25091280311857539       0.25091280468349531        0.0000000000000000     
  0.49372473173820142       0.24942723829101734        0.0000000000000000     
  0.71942908414275752       0.25530593825748893        0.0000000000000000     
 -0.70331480602694996       0.43508005529443877        0.0000000000000000     
 -0.52004317714875314       0.52004317369532427        0.0000000000000000     
 -0.24942723833724509       0.49372473245150461        0.0000000000000000     
  -1.7050648761664148E-009  0.49217002272800753        0.0000000000000000     
  0.24942723469292130       0.49372473397650207        0.0000000000000000     
  0.52004317036463565       0.52004317979340164        0.0000000000000000     
  0.70331480104651334       0.43508006019720269        0.0000000000000000     
 -0.43508005836775765       0.70331480347522646        0.0000000000000000     
 -0.25530594040414983       0.71942908466277056        0.0000000000000000     
  -5.2666330011533857E-009  0.73131318799752421        0.0000000000000000     
  0.25530593316814332       0.71942908593608779        0.0000000000000000     
  0.43508005230458463       0.70331480836460092        0.0000000000000000     
 -0.70710696270649953      -0.70710659966654887        0.0000000000000000     
 -0.54052014762002554      -0.84133107039787014        0.0000000000000000     
 -0.31324281192961062      -0.94967307046921712        0.0000000000000000     
  -2.5670801147621109E-007 -0.99999999999996703        0.0000000000000000     
  0.31324281192961195      -0.94967307046921667        0.0000000000000000     
  0.54052014762002587      -0.84133107039786981        0.0000000000000000     
  0.70710696270649964      -0.70710659966654876        0.0000000000000000     
  0.84133107039787014      -0.54052014762002554        0.0000000000000000     
  0.94967307046921712      -0.31324281192961068        0.0000000000000000     
   1.0000000000000000        0.0000000000000000        0.0000000000000000     
  0.94967307046921701       0.31324281192961101        0.0000000000000000     
  0.84133107039787003       0.54052014762002565        0.0000000000000000     
  0.70710675603818618       0.70710680633490797        0.0000000000000000     
  0.54052014762002565       0.84133107039787003        0.0000000000000000     
  0.31324281192961090       0.94967307046921701        0.0000000000000000     
  -2.3861808689903184E-008  0.99999999999999967        0.0000000000000000     
 -0.31324281192961079       0.94967307046921701        0.0000000000000000     
 -0.54052014762002631       0.84133107039786958        0.0000000000000000     
 -0.70710678978387942       0.70710677258921550        0.0000000000000000     
 -0.84133107039786970       0.54052014762002620        0.0000000000000000     
 -0.94967307046921690       0.31324281192961140        0.0000000000000000     
  -1.0000000000000000       -4.5511848700121884E-010   0.0000000000000000     
 -0.94967307046921678      -0.31324281192961162        0.0000000000000000     
 -0.84133107039786981      -0.54052014762002598        0.0000000000000000     
 -0.43508008911203638      -0.70331477838838197       0.37500000000000000     
 -0.25530597564784485      -0.71942907775197196       0.37500000000000000     
  -5.3921496866024666E-008 -0.73131318513525234       0.37500000000000000     
  0.25530591223967036      -0.71942907775128029       0.37500000000000000     
  0.43508007654726044      -0.70331477838735645       0.37500000000000000     
 -0.70331483149938367      -0.43508003023129260       0.37500000000000000     
 -0.52004321166102074      -0.52004314242523375       0.37500000000000000     
 -0.24942725595759799      -0.49372472411551999       0.37500000000000000     
  -1.4848869290711699E-008 -0.49217001908673458       0.37500000000000000     
  0.24942723417184118      -0.49372472411065049       0.37500000000000000     
  0.52004320432898821      -0.52004314241473837       0.37500000000000000     
  0.70331483056103417      -0.43508003021687675       0.37500000000000000     
 -0.71942909231312080      -0.25530593012903108       0.37500000000000000     
 -0.49372474240877634      -0.24942722844722140       0.37500000000000000     
 -0.25091281071487564      -0.25091279917819220       0.37500000000000000     
  -3.1930031971631843E-009 -0.24919779293019431       0.37500000000000000     
  0.25091280568268509      -0.25091279914448150       0.37500000000000000     
  0.49372474000467936      -0.24942722838269860       0.37500000000000000     
  0.71942909167020208      -0.25530593003835644       0.37500000000000000     
 -0.73131318938269863        1.2085512801132469E-009  0.37500000000000000     
 -0.49217002458828801        1.6345432242932236E-009  0.37500000000000000     
 -0.24919779672114539        1.1577553306236522E-009  0.37500000000000000     
  -5.8786921072370141E-010   8.5034683759218265E-010  0.37500000000000000     
  0.24919779565514716        1.3578883863897285E-009  0.37500000000000000     
  0.49217002380366826        1.9811481666605274E-009  0.37500000000000000     
  0.73131318897063335        1.5583716858924737E-009  0.37500000000000000     
 -0.71942908552534368       0.25530593689418918       0.37500000000000000     
 -0.49372473357598151       0.24942723670636668       0.37500000000000000     
 -0.25091280453360559       0.25091280387231912       0.37500000000000000     
  -5.5049885253451651E-010  0.24919779545018164       0.37500000000000000     
  0.25091280311857539       0.25091280468349531       0.37500000000000000     
  0.49372473173820142       0.24942723829101734       0.37500000000000000     
  0.71942908414275752       0.25530593825748893       0.37500000000000000     
 -0.70331480602694996       0.43508005529443877       0.37500000000000000     
 -0.52004317714875314       0.52004317369532427       0.37500000000000000     
 -0.24942723833724509       0.49372473245150461       0.37500000000000000     
  -1.7050648761664148E-009  0.49217002272800753       0.37500000000000000     
  0.24942723469292130       0.49372473397650207       0.37500000000000000     
  0.52004317036463565       0.52004317979340164       0.37500000000000000     
  0.70331480104651334       0.43508006019720269       0.37500000000000000     
 -0.43508005836775765       0.70331480347522646       0.37500000000000000     
 -0.25530594040414983       0.71942908466277056       0.37500000000000000     
  -5.2666330011533857E-009  0.73131318799752421       0.37500000000000000     
  0.25530593316814332       0.71942908593608779       0.37500000000000000     
  0.43508005230458463       0.70331480836460092       0.37500000000000000     
 -0.70710696270649953      -0.70710659966654887       0.37500000000000000     
 -0.54052014762002554      -0.84133107039787014       0.37500000000000000     
 -0.31324281192961062      -0.94967307046921712       0.37500000000000000     
  -2.5670801147621109E-007 -0.99999999999996703       0.37500000000000000     
  0.31324281192961195      -0.94967307046921667       0.37500000000000000     
  0.54052014762002587      -0.84133107039786981       0.37500000000000000     
  0.70710696270649964      -0.70710659966654876       0.37500000000000000     
  0.84133107039787014      -0.54052014762002554       0.37500000000000000     
  0.94967307046921712      -0.31324281192961068       0.37500000000000000     
   1.0000000000000000        0.0000000000000000       0.37500000000000000     
  0.94967307046921701       0.31324281192961101       0.37500000000000000     
  0.84133107039787003       0.54052014762002565       0.37500000000000000     
  0.70710675603818618       0.70710680633490797       0.37500000000000000     
  0.54052014762002565       0.84133107039787003       0.37500000000000000     
  0.31324281192961090       0.94967307046921701       0.37500000000000000     
  -2.3861808689903184E-008  0.99999999999999967       0.37500000000000000     
 -0.31324281192961079       0.94967307046921701       0.37500000000000000     
 -0.54052014762002631       0.84133107039786958       0.37500000000000000     
 -0.70710678978387942       0.70710677258921550       0.37500000000000000     
 -0.84133107039786970       0.54052014762002620       0.37500000000000000     
 -0.94967307046921690       0.31324281192961140       0.37500000000000000     
  -1.0000000000000000       -4.5511848700121884E-010  0.37500000000000000     
 -0.94967307046921678      -0.31324281192961162       0.37500000000000000     
 -0.84133107039786981      -0.54052014762002598       0.37500000000000000     
 -0.43508008911203638      -0.70331477838838197       0.75000000000000000     
 -0.25530597564784485      -0.71942907775197196       0.75000000000000000     
  -5.3921496866024666E-008 -0.73131318513525234       0.75000000000000000     
  0.25530591223967036      -0.71942907775128029       0.75000000000000000     
  0.43508007654726044      -0.70331477838735645       0.75000000000000000     
 -0.70331483149938367      -0.43508003023129260       0.75000000000000000     
 -0.52004321166102074      -0.52004314242523375       0.75000000000000000     
 -0.24942725595759799      -0.49372472411551999       0.75000000000000000     
  -1.4848869290711699E-008 -0.49217001908673458       0.75000000000000000     
  0.24942723417184118      -0.49372472411065049       0.75000000000000000     
  0.52004320432898821      -0.52004314241473837       0.75000000000000000     
  0.70331483056103417      -0.43508003021687675       0.75000000000000000     
 -0.71942909231312080      -0.25530593012903108       0.75000000000000000     
 -0.49372474240877634      -0.24942722844722140       0.75000000000000000     
 -0.25091281071487564      -0.25091279917819220       0.75000000000000000     
  -3.1930031971631843E-009 -0.24919779293019431       0.75000000000000000     
  0.25091280568268509      -0.25091279914448150       0.75000000000000000     
  0.49372474000467936      -0.24942722838269860       0.75000000000000000     
  0.71942909167020208      -0.25530593003835644       0.75000000000000000     
 -0.73131318938269863        1.2085512801132469E-009  0.75000000000000000     
 -0.49217002458828801        1.6345432242932236E-009  0.75000000000000000     
 -0.24919779672114539        1.1577553306236522E-009  0.75000000000000000     
  -5.8786921072370141E-010   8.5034683759218265E-010  0.75000000000000000     
  0.24919779565514716        1.3578883863897285E-009  0.75000000000000000     
  0.49217002380366826        1.9811481666605274E-009  0.75000000000000000     
  0.73131318897063335        1.5583716858924737E-009  0.75000000000000000     
 -0.71942908552534368       0.25530593689418918       0.75000000000000000     
 -0.49372473357598151       0.24942723670636668       0.75000000000000000     
 -0.25091280453360559       0.25091280387231912       0.75000000000000000     
  -5.5049885253451651E-010  0.24919779545018164       0.75000000000000000     
  0.25091280311857539       0.25091280468349531       0.75000000000000000     
  0.49372473173820142       0.24942723829101734       0.75000000000000000     
  0.71942908414275752       0.25530593825748893       0.75000000000000000     
 -0.70331480602694996       0.43508005529443877       0.75000000000000000     
 -0.52004317714875314       0.52004317369532427       0.75000000000000000     
 -0.24942723833724509       0.49372473245150461       0.75000000000000000     
  -1.7050648761664148E-009  0.49217002272800753       0.75000000000000000     
  0.24942723469292130       0.49372473397650207       0.75000000000000000     
  0.52004317036463565       0.52004317979340164       0.75000000000000000     
  0.70331480104651334       0.43508006019720269       0.75000000000000000     
 -0.43508005836775765       0.70331480347522646       0.75000000000000000     
 -0.25530594040414983       0.71942908466277056       0.75000000000000000     
  -5.2666330011533857E-009  0.73131318799752421       0.75000000000000000     
  0.25530593316814332       0.71942908593608779       0.75000000000000000     
  0.43508005230458463       0.70331480836460092       0.75000000000000000     
 -0.70710696270649953      -0.70710659966654887       0.75000000000000000     
 -0.54052014762002554      -0.84133107039787014       0.75000000000000000     
 -0.31324281192961062      -0.94967307046921712       0.75000000000000000     
  -2.5670801147621109E-007 -0.99999999999996703       0.75000000000000000     
  0.31324281192961195      -0.94967307046921667       0.75000000000000000     
  0.54052014762002587      -0.84133107039786981       0.75000000000000000     
  0.70710696270649964      -0.70710659966654876       0.75000000000000000     
  0.84133107039787014      -0.54052014762002554       0.75000000000000000     
  0.94967307046921712      -0.31324281192961068       0.75000000000000000     
   1.0000000000000000        0.0000000000000000       0.75000000000000000     
  0.94967307046921701       0.31324281192961101       0.75000000000000000     
  0.84133107039787003       0.54052014762002565       0.75000000000000000     
  0.70710675603818618       0.70710680633490797       0.75000000000000000     
  0.54052014762002565       0.84133107039787003       0.75000000000000000     
  0.31324281192961090       0.94967307046921701       0.75000000000000000     
  -2.3861808689903184E-008  0.99999999999999967       0.75000000000000000     
 -0.31324281192961079       0.94967307046921701       0.75000000000000000     
 -0.54052014762002631       0.84133107039786958       0.75000000000000000     
 -0.70710678978387942       0.70710677258921550       0.75000000000000000     
 -0.84133107039786970       0.54052014762002620       0.75000000000000000     
 -0.94967307046921690       0.31324281192961140       0.75000000000000000     
  -1.0000000000000000       -4.5511848700121884E-010  0.75000000000000000     
 -0.94967307046921678      -0.31324281192961162       0.75000000000000000     
 -0.84133107039786981      -0.54052014762002598       0.75000000000000000     
 -0.43508008911203638      -0.70331477838838197        1.1250000000000000     
 -0.25530597564784485      -0.71942907775197196        1.1250000000000000     
  -5.3921496866024666E-008 -0.73131318513525234        1.1250000000000000     
  0.25530591223967036      -0.71942907775128029        1.1250000000000000     
  0.43508007654726044      -0.70331477838735645        1.1250000000000000     
 -0.70331483149938367      -0.43508003023129260        1.1250000000000000     
 -0.52004321166102074      -0.52004314242523375        1.1250000000000000     
 -0.24942725595759799      -0.49372472411551999        1.1250000000000000     
  -1.4848869290711699E-008 -0.49217001908673458        1.1250000000000000     
  0.24942723417184118      -0.49372472411065049        1.1250000000000000     
  0.52004320432898821      -0.52004314241473837        1.1250000000000000     
  0.70331483056103417      -0.43508003021687675        1.1250000000000000     
 -0.71942909231312080      -0.25530593012903108        1.1250000000000000     
 -0.49372474240877634      -0.24942722844722140        1.1250000000000000     
 -0.25091281071487564      -0.25091279917819220        1.1250000000000000     
  -3.1930031971631843E-009 -0.24919779293019431        1.1250000000000000     
  0.25091280568268509      -0.25091279914448150        1.1250000000000000     
  0.49372474000467936      -0.24942722838269860        1.1250000000000000     
  0.71942909167020208      -0.25530593003835644        1.1250000000000000     
 -0.73131318938269863        1.2085512801132469E-009   1.1250000000000000     
 -0.49217002458828801        1.6345432242932236E-009   1.1250000000000000     
 -0.24919779672114539        1.1577553306236522E-009   1.1250000000000000     
  -5.8786921072370141E-010   8.5034683759218265E-010   1.1250000000000000     
  0.24919779565514716        1.3578883863897285E-009   1.1250000000000000     
  0.49217002380366826        1.9811481666605274E-009   1.1250000000000000     
  0.73131318897063335        1.5583716858924737E-009   1.1250000000000000     
 -0.71942908552534368       0.25530593689418918        1.1250000000000000     
 -0.49372473357598151       0.24942723670636668        1.1250000000000000     
 -0.25091280453360559       0.25091280387231912        1.1250000000000000     
  -5.5049885253451651E-010  0.24919779545018164        1.1250000000000000     
  0.25091280311857539       0.25091280468349531        1.1250000000000000     
  0.49372473173820142       0.24942723829101734        1.1250000000000000     
  0.71942908414275752       0.25530593825748893        1.1250000000000000     
 -0.70331480602694996       0.43508005529443877        1.1250000000000000     
 -0.52004317714875314       0.52004317369532427        1.1250000000000000     
 -0.24942723833724509       0.49372473245150461        1.1250000000000000     
  -1.7050648761664148E-009  0.49217002272800753        1.1250000000000000     
  0.24942723469292130       0.49372473397650207        1.1250000000000000     
  0.52004317036463565       0.52004317979340164        1.1250000000000000     
  0.70331480104651334       0.43508006019720269        1.1250000000000000     
 -0.43508005836775765       0.70331480347522646        1.1250000000000000     
 -0.25530594040414983       0.71942908466277056        1.1250000000000000     
  -5.2666330011533857E-009  0.73131318799752421        1.1250000000000000     
  0.25530593316814332       0.71942908593608779        1.1250000000000000     
  0.43508005230458463       0.70331480836460092        1.1250000000000000     
 -0.70710696270649953      -0.70710659966654887        1.1250000000000000     
 -0.54052014762002554      -0.84133107039787014        1.1250000000000000     
 -0.31324281192961062      -0.94967307046921712        1.1250000000000000     
  -2.5670801147621109E-007 -0.99999999999996703        1.1250000000000000     
  0.31324281192961195      -0.94967307046921667        1.1250000000000000     
  0.54052014762002587      -0.84133107039786981        1.1250000000000000     
  0.70710696270649964      -0.70710659966654876        1.1250000000000000     
  0.84133107039787014      -0.54052014762002554        1.1250000000000000     
  0.94967307046921712      -0.31324281192961068        1.1250000000000000     
   1.0000000000000000        0.0000000000000000        1.1250000000000000     
  0.94967307046921701       0.31324281192961101        1.1250000000000000     
  0.84133107039787003       0.54052014762002565        1.1250000000000000     
  0.70710675603818618       0.70710680633490797        1.1250000000000000     
  0.54052014762002565       0.84133107039787003        1.1250000000000000     
  0.31324281192961090       0.94967307046921701        1.1250000000000000     
  -2.3861808689903184E-008  0.99999999999999967        1.1250000000000000     
 -0.31324281192961079       0.94967307046921701        1.1250000000000000     
 -0.54052014762002631       0.84133107039786958        1.1250000000000000     
 -0.70710678978387942       0.70710677258921550        1.1250000000000000     
 -0.84133107039786970       0.54052014762002620        1.1250000000000000     
 -0.94967307046921690       0.31324281192961140        1.1250000000000000     
  -1.0000000000000000       -4.5511848700121884E-010   1.1250000000000000     
 -0.94967307046921678      -0.31324281192961162        1.1250000000000000     
 -0.84133107039786981      -0.54052014762002598        1.1250000000000000     
 -0.43508008911203638      -0.70331477838838197        1.5000000000000000     
 -0.25530597564784485      -0.71942907775197196        1.5000000000000000     
  -5.3921496866024666E-008 -0.73131318513525234        1.5000000000000000     
  0.25530591223967036      -0.71942907775128029        1.5000000000000000     
  0.43508007654726044      -0.70331477838735645        1.5000000000000000     
 -0.70331483149938367      -0.43508003023129260        1.5000000000000000     
 -0.52004321166102074      -0.52004314242523375        1.5000000000000000     
 -0.24942725595759799      -0.49372472411551999        1.5000000000000000     
  -1.4848869290711699E-008 -0.49217001908673458        1.5000000000000000     
  0.24942723417184118      -0.49372472411065049        1.5000000000000000     
  0.52004320432898821      -0.52004314241473837        1.5000000000000000     
  0.70331483056103417      -0.43508003021687675        1.5000000000000000     
 -0.71942909231312080      -0.25530593012903108        1.5000000000000000     
 -0.49372474240877634      -0.24942722844722140        1.5000000000000000     
 -0.25091281071487564      -0.25091279917819220        1.5000000000000000     
  -3.1930031971631843E-009 -0.24919779293019431        1.5000000000000000     
  0.25091280568268509      -0.25091279914448150        1.5000000000000000     
  0.49372474000467936      -0.24942722838269860        1.5000000000000000     
  0.71942909167020208      -0.25530593003835644        1.5000000000000000     
 -0.73131318938269863        1.2085512801132469E-009   1.5000000000000000     
 -0.49217002458828801        1.6345432242932236E-009   1.5000000000000000     
 -0.24919779672114539        1.1577553306236522E-009   1.5000000000000000     
  -5.8786921072370141E-010   8.5034683759218265E-010   1.5000000000000000     
  0.24919779565514716        1.3578883863897285E-009   1.5000000000000000     
  0.49217002380366826        1.9811481666605274E-009   1.5000000000000000     
  0.73131318897063335        1.5583716858924737E-009   1.5000000000000000     
 -0.71942908552534368       0.25530593689418918        1.5000000000000000     
 -0.49372473357598151       0.24942723670636668        1.5000000000000000     
 -0.25091280453360559       0.25091280387231912        1.5000000000000000     
  -5.5049885253451651E-010  0.24919779545018164        1.5000000000000000     
  0.25091280311857539       0.25091280468349531        1.5000000000000000     
  0.49372473173820142       0.24942723829101734        1.5000000000000000     
  0.71942908414275752       0.25530593825748893        1.5000000000000000     
 -0.70331480602694996       0.43508005529443877        1.5000000000000000     
 -0.52004317714875314       0.52004317369532427        1.5000000000000000     
 -0.24942723833724509       0.49372473245150461        1.5000000000000000     
  -1.7050648761664148E-009  0.49217002272800753        1.5000000000000000     
  0.24942723469292130       0.49372473397650207        1.5000000000000000     
  0.52004317036463565       0.52004317979340164        1.5000000000000000     
  0.70331480104651334       0.43508006019720269        1.5000000000000000     
 -0.43508005836775765       0.70331480347522646        1.5000000000000000     
 -0.25530594040414983       0.71942908466277056        1.5000000000000000     
  -5.2666330011533857E-009  0.73131318799752421        1.5000000000000000     
  0.25530593316814332       0.71942908593608779        1.5000000000000000     
  0.43508005230458463       0.70331480836460092        1.5000000000000000     
 -0.70710696270649953      -0.70710659966654887        1.5000000000000000     
 -0.54052014762002554      -0.84133107039787014        1.5000000000000000     
 -0.31324281192961062      -0.94967307046921712        1.5000000000000000     
  -2.5670801147621109E-007 -0.99999999999996703        1.5000000000000000     
  0.31324281192961195      -0.94967307046921667        1.5000000000000000     
  0.54052014762002587      -0.84133107039786981        1.5000000000000000     
  0.70710696270649964      -0.70710659966654876        1.5000000000000000     
  0.84133107039787014      -0.54052014762002554        1.5000000000000000     
  0.94967307046921712      -0.31324281192961068        1.5000000000000000     
   1.0000000000000000        0.0000000000000000        1.5000000000000000     
  0.94967307046921701       0.31324281192961101        1.5000000000000000     
  0.84133107039787003       0.54052014762002565        1.5000000000000000     
  0.70710675603818618       0.70710680633490797        1.5000000000000000     
  0.54052014762002565       0.84133107039787003        1.5000000000000000     
  0.31324281192961090       0.94967307046921701        1.5000000000000000     
  -2.3861808689903184E-008  0.99999999999999967        1.5000000000000000     
 -0.31324281192961079       0.94967307046921701        1.5000000000000000     
 -0.54052014762002631       0.84133107039786958        1.5000000000000000     
 -0.70710678978387942       0.70710677258921550        1.5000000000000000     
 -0.84133107039786970       0.54052014762002620        1.5000000000000000     
 -0.94967307046921690       0.31324281192961140        1.5000000000000000     
  -1.0000000000000000       -4.5511848700121884E-010   1.5000000000000000     
 -0.94967307046921678      -0.31324281192961162        1.5000000000000000     
 -0.84133107039786981      -0.54052014762002598        1.5000000000000000     
 -0.43508008911203638      -0.70331477838838197        1.8750000000000000     
 -0.25530597564784485      -0.71942907775197196        1.8750000000000000     
  -5.3921496866024666E-008 -0.73131318513525234        1.8750000000000000     
  0.25530591223967036      -0.71942907775128029        1.8750000000000000     
  0.43508007654726044      -0.70331477838735645        1.8750000000000000     
 -0.70331483149938367      -0.43508003023129260        1.8750000000000000     
 -0.52004321166102074      -0.52004314242523375        1.8750000000000000     
 -0.24942725595759799      -0.49372472411551999        1.8750000000000000     
  -1.4848869290711699E-008 -0.49217001908673458        1.8750000000000000     
  0.24942723417184118      -0.49372472411065049        1.8750000000000000     
  0.52004320432898821      -0.52004314241473837        1.8750000000000000     
  0.70331483056103417      -0.43508003021687675        1.8750000000000000     
 -0.71942909231312080      -0.25530593012903108        1.8750000000000000     
 -0.49372474240877634      -0.24942722844722140        1.8750000000000000     
 -0.25091281071487564      -0.25091279917819220        1.8750000000000000     
  -3.1930031971631843E-009 -0.24919779293019431        1.8750000000000000     
  0.25091280568268509      -0.25091279914448150        1.8750000000000000     
  0.49372474000467936      -0.24942722838269860        1.8750000000000000     
  0.71942909167020208      -0.25530593003835644        1.8750000000000000     
 -0.73131318938269863        1.2085512801132469E-009   1.8750000000000000     
 -0.49217002458828801        1.6345432242932236E-009   1.8750000000000000     
 -0.24919779672114539        1.1577553306236522E-009   1.8750000000000000     
  -5.8786921072370141E-010   8.5034683759218265E-010   1.8750000000000000     
  0.24919779565514716        1.3578883863897285E-009   1.8750000000000000     
  0.49217002380366826        1.9811481666605274E-009   1.8750000000000000     
  0.73131318897063335        1.5583716858924737E-009   1.8750000000000000     
 -0.71942908552534368       0.25530593689418918        1.8750000000000000     
 -0.49372473357598151       0.24942723670636668        1.8750000000000000     
 -0.25091280453360559       0.25091280387231912        1.8750000000000000     
  -5.5049885253451651E-010  0.24919779545018164        1.8750000000000000     
  0.25091280311857539       0.25091280468349531        1.8750000000000000     
  0.49372473173820142       0.24942723829101734        1.8750000000000000     
  0.71942908414275752       0.25530593825748893        1.8750000000000000     