  TITLE = "SEM Quad mesh" 
  VARIABLES = "x","y", "z"
 ZONE I=           6 ,J=           6 , F=POINT
 -0.31521E+01  0.77505E+00  0.00000E+00
 -0.30853E+01  0.77349E+00  0.00000E+00
 -0.29105E+01  0.76940E+00  0.00000E+00
 -0.26944E+01  0.76434E+00  0.00000E+00
 -0.25196E+01  0.76024E+00  0.00000E+00
 -0.24529E+01  0.75868E+00  0.00000E+00
 -0.31435E+01  0.84440E+00  0.00000E+00
 -0.30774E+01  0.84289E+00  0.00000E+00
 -0.29045E+01  0.83893E+00  0.00000E+00
 -0.26907E+01  0.83404E+00  0.00000E+00
 -0.25177E+01  0.83008E+00  0.00000E+00
 -0.24516E+01  0.82857E+00  0.00000E+00
 -0.31209E+01  0.10260E+01  0.00000E+00
 -0.30567E+01  0.10246E+01  0.00000E+00
 -0.28886E+01  0.10210E+01  0.00000E+00
 -0.26808E+01  0.10165E+01  0.00000E+00
 -0.25127E+01  0.10129E+01  0.00000E+00
 -0.24485E+01  0.10115E+01  0.00000E+00
 -0.30929E+01  0.12504E+01  0.00000E+00
 -0.30310E+01  0.12492E+01  0.00000E+00
 -0.28689E+01  0.12460E+01  0.00000E+00
 -0.26685E+01  0.12421E+01  0.00000E+00
 -0.25064E+01  0.12389E+01  0.00000E+00
 -0.24445E+01  0.12377E+01  0.00000E+00
 -0.30703E+01  0.14320E+01  0.00000E+00
 -0.30102E+01  0.14309E+01  0.00000E+00
 -0.28530E+01  0.14281E+01  0.00000E+00
 -0.26586E+01  0.14246E+01  0.00000E+00
 -0.25014E+01  0.14218E+01  0.00000E+00
 -0.24413E+01  0.14207E+01  0.00000E+00
 -0.30617E+01  0.15013E+01  0.00000E+00
 -0.30023E+01  0.15003E+01  0.00000E+00
 -0.28469E+01  0.14976E+01  0.00000E+00
 -0.26548E+01  0.14943E+01  0.00000E+00
 -0.24994E+01  0.14916E+01  0.00000E+00
 -0.24401E+01  0.14906E+01  0.00000E+00
 ZONE I=           6 ,J=           6 , F=POINT
 -0.24529E+01  0.75868E+00  0.00000E+00
 -0.23847E+01  0.75827E+00  0.00000E+00
 -0.22063E+01  0.75720E+00  0.00000E+00
 -0.19857E+01  0.75588E+00  0.00000E+00
 -0.18072E+01  0.75481E+00  0.00000E+00
 -0.17391E+01  0.75440E+00  0.00000E+00
 -0.24516E+01  0.82857E+00  0.00000E+00
 -0.23836E+01  0.82832E+00  0.00000E+00
 -0.22056E+01  0.82767E+00  0.00000E+00
 -0.19855E+01  0.82686E+00  0.00000E+00
 -0.18074E+01  0.82621E+00  0.00000E+00
 -0.17394E+01  0.82596E+00  0.00000E+00
 -0.24485E+01  0.10115E+01  0.00000E+00
 -0.23808E+01  0.10117E+01  0.00000E+00
 -0.22037E+01  0.10122E+01  0.00000E+00
 -0.19849E+01  0.10127E+01  0.00000E+00
 -0.18078E+01  0.10131E+01  0.00000E+00
 -0.17402E+01  0.10133E+01  0.00000E+00
 -0.24445E+01  0.12377E+01  0.00000E+00
 -0.23773E+01  0.12384E+01  0.00000E+00
 -0.22015E+01  0.12402E+01  0.00000E+00
 -0.19841E+01  0.12424E+01  0.00000E+00
 -0.18083E+01  0.12442E+01  0.00000E+00
 -0.17411E+01  0.12449E+01  0.00000E+00
 -0.24413E+01  0.14207E+01  0.00000E+00
 -0.23745E+01  0.14218E+01  0.00000E+00
 -0.21997E+01  0.14247E+01  0.00000E+00
 -0.19835E+01  0.14282E+01  0.00000E+00
 -0.18087E+01  0.14311E+01  0.00000E+00
 -0.17419E+01  0.14322E+01  0.00000E+00
 -0.24401E+01  0.14906E+01  0.00000E+00
 -0.23734E+01  0.14918E+01  0.00000E+00
 -0.21990E+01  0.14951E+01  0.00000E+00
 -0.19833E+01  0.14992E+01  0.00000E+00
 -0.18088E+01  0.15025E+01  0.00000E+00
 -0.17422E+01  0.15038E+01  0.00000E+00
 ZONE I=           6 ,J=           6 , F=POINT
 -0.17391E+01  0.75440E+00  0.00000E+00
 -0.16685E+01  0.75426E+00  0.00000E+00
 -0.14836E+01  0.75388E+00  0.00000E+00
 -0.12551E+01  0.75340E+00  0.00000E+00
 -0.10702E+01  0.75302E+00  0.00000E+00
 -0.99962E+00  0.75288E+00  0.00000E+00
 -0.17394E+01  0.82596E+00  0.00000E+00
 -0.16688E+01  0.82584E+00  0.00000E+00
 -0.14839E+01  0.82553E+00  0.00000E+00
 -0.12554E+01  0.82515E+00  0.00000E+00
 -0.10706E+01  0.82484E+00  0.00000E+00
 -0.99995E+00  0.82472E+00  0.00000E+00
 -0.17402E+01  0.10133E+01  0.00000E+00
 -0.16696E+01  0.10133E+01  0.00000E+00
 -0.14847E+01  0.10131E+01  0.00000E+00
 -0.12563E+01  0.10130E+01  0.00000E+00
 -0.10714E+01  0.10128E+01  0.00000E+00
 -0.10008E+01  0.10128E+01  0.00000E+00
 -0.17411E+01  0.12449E+01  0.00000E+00
 -0.16705E+01  0.12449E+01  0.00000E+00
 -0.14857E+01  0.12450E+01  0.00000E+00
 -0.12573E+01  0.12451E+01  0.00000E+00
 -0.10725E+01  0.12452E+01  0.00000E+00
 -0.10019E+01  0.12453E+01  0.00000E+00
 -0.17419E+01  0.14322E+01  0.00000E+00
 -0.16713E+01  0.14323E+01  0.00000E+00
 -0.14865E+01  0.14326E+01  0.00000E+00
 -0.12582E+01  0.14330E+01  0.00000E+00
 -0.10734E+01  0.14332E+01  0.00000E+00
 -0.10028E+01  0.14334E+01  0.00000E+00
 -0.17422E+01  0.15038E+01  0.00000E+00
 -0.16716E+01  0.15039E+01  0.00000E+00
 -0.14869E+01  0.15043E+01  0.00000E+00
 -0.12585E+01  0.15047E+01  0.00000E+00
 -0.10737E+01  0.15051E+01  0.00000E+00
 -0.10032E+01  0.15052E+01  0.00000E+00
 ZONE I=           6 ,J=           6 , F=POINT
 -0.99962E+00  0.75288E+00  0.00000E+00
 -0.92806E+00  0.75282E+00  0.00000E+00
 -0.74074E+00  0.75268E+00  0.00000E+00
 -0.50919E+00  0.75251E+00  0.00000E+00
 -0.32187E+00  0.75237E+00  0.00000E+00
 -0.25031E+00  0.75231E+00  0.00000E+00
 -0.99995E+00  0.82472E+00  0.00000E+00
 -0.92839E+00  0.82467E+00  0.00000E+00
 -0.74102E+00  0.82456E+00  0.00000E+00
 -0.50942E+00  0.82443E+00  0.00000E+00
 -0.32205E+00  0.82431E+00  0.00000E+00
 -0.25048E+00  0.82427E+00  0.00000E+00
 -0.10008E+01  0.10128E+01  0.00000E+00
 -0.92923E+00  0.10128E+01  0.00000E+00
 -0.74175E+00  0.10127E+01  0.00000E+00
 -0.51001E+00  0.10127E+01  0.00000E+00
 -0.32253E+00  0.10127E+01  0.00000E+00
 -0.25092E+00  0.10127E+01  0.00000E+00
 -0.10019E+01  0.12453E+01  0.00000E+00
 -0.93028E+00  0.12453E+01  0.00000E+00
 -0.74266E+00  0.12454E+01  0.00000E+00
 -0.51075E+00  0.12454E+01  0.00000E+00
 -0.32313E+00  0.12455E+01  0.00000E+00
 -0.25146E+00  0.12455E+01  0.00000E+00
 -0.10028E+01  0.14334E+01  0.00000E+00
 -0.93112E+00  0.14334E+01  0.00000E+00
 -0.74339E+00  0.14335E+01  0.00000E+00
 -0.51134E+00  0.14337E+01  0.00000E+00
 -0.32361E+00  0.14338E+01  0.00000E+00
 -0.25190E+00  0.14339E+01  0.00000E+00
 -0.10032E+01  0.15052E+01  0.00000E+00
 -0.93145E+00  0.15053E+01  0.00000E+00
 -0.74367E+00  0.15054E+01  0.00000E+00
 -0.51157E+00  0.15056E+01  0.00000E+00
 -0.32379E+00  0.15058E+01  0.00000E+00
 -0.25207E+00  0.15059E+01  0.00000E+00
 ZONE I=           6 ,J=           6 , F=POINT
 -0.25031E+00  0.75231E+00  0.00000E+00
 -0.17855E+00  0.75232E+00  0.00000E+00
  0.93189E-02  0.75232E+00  0.00000E+00
  0.24154E+00  0.75233E+00  0.00000E+00
  0.42941E+00  0.75233E+00  0.00000E+00
  0.50117E+00  0.75234E+00  0.00000E+00
 -0.25048E+00  0.82427E+00  0.00000E+00
 -0.17868E+00  0.82429E+00  0.00000E+00
  0.92840E-02  0.82432E+00  0.00000E+00
  0.24162E+00  0.82437E+00  0.00000E+00
  0.42959E+00  0.82441E+00  0.00000E+00
  0.50139E+00  0.82442E+00  0.00000E+00
 -0.25092E+00  0.10127E+01  0.00000E+00
 -0.17903E+00  0.10127E+01  0.00000E+00
  0.91925E-02  0.10128E+01  0.00000E+00
  0.24184E+00  0.10130E+01  0.00000E+00
  0.43006E+00  0.10131E+01  0.00000E+00
  0.50196E+00  0.10131E+01  0.00000E+00
 -0.25146E+00  0.12455E+01  0.00000E+00
 -0.17945E+00  0.12456E+01  0.00000E+00
  0.90793E-02  0.12458E+01  0.00000E+00
  0.24212E+00  0.12461E+01  0.00000E+00
  0.43065E+00  0.12463E+01  0.00000E+00
  0.50266E+00  0.12464E+01  0.00000E+00
 -0.25190E+00  0.14339E+01  0.00000E+00
 -0.17979E+00  0.14340E+01  0.00000E+00
  0.89878E-02  0.14343E+01  0.00000E+00
  0.24234E+00  0.14347E+01  0.00000E+00
  0.43112E+00  0.14350E+01  0.00000E+00
  0.50323E+00  0.14351E+01  0.00000E+00
 -0.25207E+00  0.15059E+01  0.00000E+00
 -0.17993E+00  0.15060E+01  0.00000E+00
  0.89528E-02  0.15063E+01  0.00000E+00
  0.24242E+00  0.15067E+01  0.00000E+00
  0.43130E+00  0.15071E+01  0.00000E+00
  0.50344E+00  0.15072E+01  0.00000E+00
 ZONE I=           6 ,J=           6 , F=POINT
  0.50117E+00  0.75234E+00  0.00000E+00
  0.57254E+00  0.75157E+00  0.00000E+00
  0.75940E+00  0.74955E+00  0.00000E+00
  0.99036E+00  0.74705E+00  0.00000E+00
  0.11772E+01  0.74503E+00  0.00000E+00
  0.12486E+01  0.74426E+00  0.00000E+00
  0.50139E+00  0.82442E+00  0.00000E+00
  0.57287E+00  0.82370E+00  0.00000E+00
  0.75999E+00  0.82180E+00  0.00000E+00
  0.99129E+00  0.81946E+00  0.00000E+00
  0.11784E+01  0.81757E+00  0.00000E+00
  0.12499E+01  0.81685E+00  0.00000E+00
  0.50196E+00  0.10131E+01  0.00000E+00
  0.57371E+00  0.10125E+01  0.00000E+00
  0.76155E+00  0.10110E+01  0.00000E+00
  0.99373E+00  0.10090E+01  0.00000E+00
  0.11816E+01  0.10075E+01  0.00000E+00
  0.12533E+01  0.10069E+01  0.00000E+00
  0.50266E+00  0.12464E+01  0.00000E+00
  0.57474E+00  0.12460E+01  0.00000E+00
  0.76347E+00  0.12448E+01  0.00000E+00
  0.99674E+00  0.12434E+01  0.00000E+00
  0.11855E+01  0.12422E+01  0.00000E+00
  0.12575E+01  0.12418E+01  0.00000E+00
  0.50323E+00  0.14351E+01  0.00000E+00
  0.57558E+00  0.14348E+01  0.00000E+00
  0.76502E+00  0.14340E+01  0.00000E+00
  0.99917E+00  0.14329E+01  0.00000E+00
  0.11886E+01  0.14321E+01  0.00000E+00
  0.12610E+01  0.14318E+01  0.00000E+00
  0.50344E+00  0.15072E+01  0.00000E+00
  0.57590E+00  0.15069E+01  0.00000E+00
  0.76561E+00  0.15062E+01  0.00000E+00
  0.10001E+01  0.15054E+01  0.00000E+00
  0.11898E+01  0.15046E+01  0.00000E+00
  0.12623E+01  0.15044E+01  0.00000E+00
 ZONE I=           6 ,J=           6 , F=POINT
  0.12486E+01  0.74426E+00  0.00000E+00
  0.13170E+01  0.73982E+00  0.00000E+00
  0.14960E+01  0.72820E+00  0.00000E+00
  0.17172E+01  0.71384E+00  0.00000E+00
  0.18962E+01  0.70222E+00  0.00000E+00
  0.19646E+01  0.69778E+00  0.00000E+00
  0.12499E+01  0.81685E+00  0.00000E+00
  0.13185E+01  0.81215E+00  0.00000E+00
  0.14983E+01  0.79986E+00  0.00000E+00
  0.17204E+01  0.78468E+00  0.00000E+00
  0.19002E+01  0.77239E+00  0.00000E+00
  0.19688E+01  0.76769E+00  0.00000E+00
  0.12533E+01  0.10069E+01  0.00000E+00
  0.13227E+01  0.10015E+01  0.00000E+00
  0.15044E+01  0.98748E+00  0.00000E+00
  0.17289E+01  0.97013E+00  0.00000E+00
  0.19106E+01  0.95609E+00  0.00000E+00
  0.19800E+01  0.95073E+00  0.00000E+00
  0.12575E+01  0.12418E+01  0.00000E+00
  0.13278E+01  0.12356E+01  0.00000E+00
  0.15119E+01  0.12194E+01  0.00000E+00
  0.17394E+01  0.11994E+01  0.00000E+00
  0.19234E+01  0.11832E+01  0.00000E+00
  0.19937E+01  0.11770E+01  0.00000E+00
  0.12610E+01  0.14318E+01  0.00000E+00
  0.13320E+01  0.14249E+01  0.00000E+00
  0.15180E+01  0.14070E+01  0.00000E+00
  0.17478E+01  0.13848E+01  0.00000E+00
  0.19338E+01  0.13669E+01  0.00000E+00
  0.20048E+01  0.13600E+01  0.00000E+00
  0.12623E+01  0.15044E+01  0.00000E+00
  0.13336E+01  0.14973E+01  0.00000E+00
  0.15203E+01  0.14787E+01  0.00000E+00
  0.17510E+01  0.14556E+01  0.00000E+00
  0.19377E+01  0.14370E+01  0.00000E+00
  0.20091E+01  0.14299E+01  0.00000E+00
 ZONE I=           6 ,J=           6 , F=POINT
  0.19646E+01  0.69778E+00  0.00000E+00
  0.20152E+01  0.68818E+00  0.00000E+00
  0.21479E+01  0.66304E+00  0.00000E+00
  0.23118E+01  0.63197E+00  0.00000E+00
  0.24444E+01  0.60684E+00  0.00000E+00
  0.24951E+01  0.59724E+00  0.00000E+00
  0.19688E+01  0.76769E+00  0.00000E+00
  0.20222E+01  0.75614E+00  0.00000E+00
  0.21620E+01  0.72590E+00  0.00000E+00
  0.23347E+01  0.68852E+00  0.00000E+00
  0.24745E+01  0.65828E+00  0.00000E+00
  0.25278E+01  0.64673E+00  0.00000E+00
  0.19800E+01  0.95073E+00  0.00000E+00
  0.20405E+01  0.93407E+00  0.00000E+00
  0.21989E+01  0.89047E+00  0.00000E+00
  0.23947E+01  0.83657E+00  0.00000E+00
  0.25531E+01  0.79296E+00  0.00000E+00
  0.26136E+01  0.77631E+00  0.00000E+00
  0.19937E+01  0.11770E+01  0.00000E+00
  0.20630E+01  0.11540E+01  0.00000E+00
  0.22445E+01  0.10939E+01  0.00000E+00
  0.24688E+01  0.10196E+01  0.00000E+00
  0.26503E+01  0.95944E+00  0.00000E+00
  0.27196E+01  0.93647E+00  0.00000E+00
  0.20048E+01  0.13600E+01  0.00000E+00
  0.20813E+01  0.13319E+01  0.00000E+00
  0.22814E+01  0.12584E+01  0.00000E+00
  0.25288E+01  0.11676E+01  0.00000E+00
  0.27289E+01  0.10941E+01  0.00000E+00
  0.28054E+01  0.10660E+01  0.00000E+00
  0.20091E+01  0.14299E+01  0.00000E+00
  0.20882E+01  0.13999E+01  0.00000E+00
  0.22955E+01  0.13213E+01  0.00000E+00
  0.25517E+01  0.12242E+01  0.00000E+00
  0.27590E+01  0.11456E+01  0.00000E+00
  0.28381E+01  0.11155E+01  0.00000E+00
 ZONE I=           6 ,J=           6 , F=POINT
 -0.30617E+01  0.15013E+01  0.00000E+00
 -0.30023E+01  0.15003E+01  0.00000E+00
 -0.28469E+01  0.14976E+01  0.00000E+00
 -0.26548E+01  0.14943E+01  0.00000E+00
 -0.24994E+01  0.14916E+01  0.00000E+00
 -0.24401E+01  0.14906E+01  0.00000E+00
 -0.30552E+01  0.15486E+01  0.00000E+00
 -0.29970E+01  0.15499E+01  0.00000E+00
 -0.28445E+01  0.15534E+01  0.00000E+00
 -0.26561E+01  0.15578E+01  0.00000E+00
 -0.25036E+01  0.15613E+01  0.00000E+00
 -0.24454E+01  0.15626E+01  0.00000E+00
 -0.30382E+01  0.16724E+01  0.00000E+00
 -0.29829E+01  0.16799E+01  0.00000E+00
 -0.28382E+01  0.16996E+01  0.00000E+00
 -0.26593E+01  0.17240E+01  0.00000E+00
 -0.25145E+01  0.17437E+01  0.00000E+00
 -0.24592E+01  0.17512E+01  0.00000E+00
 -0.30171E+01  0.18253E+01  0.00000E+00
 -0.29655E+01  0.18405E+01  0.00000E+00
 -0.28303E+01  0.18803E+01  0.00000E+00
 -0.26632E+01  0.19294E+01  0.00000E+00
 -0.25280E+01  0.19692E+01  0.00000E+00
 -0.24764E+01  0.19844E+01  0.00000E+00
 -0.30001E+01  0.19491E+01  0.00000E+00
 -0.29514E+01  0.19705E+01  0.00000E+00
 -0.28240E+01  0.20264E+01  0.00000E+00
 -0.26664E+01  0.20956E+01  0.00000E+00
 -0.25389E+01  0.21516E+01  0.00000E+00
 -0.24902E+01  0.21730E+01  0.00000E+00
 -0.29936E+01  0.19964E+01  0.00000E+00
 -0.29461E+01  0.20201E+01  0.00000E+00
 -0.28215E+01  0.20823E+01  0.00000E+00
 -0.26676E+01  0.21591E+01  0.00000E+00
 -0.25431E+01  0.22213E+01  0.00000E+00
 -0.24955E+01  0.22450E+01  0.00000E+00
 ZONE I=           6 ,J=           6 , F=POINT
 -0.24401E+01  0.14906E+01  0.00000E+00
 -0.23734E+01  0.14918E+01  0.00000E+00
 -0.21990E+01  0.14951E+01  0.00000E+00
 -0.19833E+01  0.14992E+01  0.00000E+00
 -0.18088E+01  0.15025E+01  0.00000E+00
 -0.17422E+01  0.15038E+01  0.00000E+00
 -0.24454E+01  0.15626E+01  0.00000E+00
 -0.23783E+01  0.15636E+01  0.00000E+00
 -0.22026E+01  0.15662E+01  0.00000E+00
 -0.19854E+01  0.15694E+01  0.00000E+00
 -0.18097E+01  0.15721E+01  0.00000E+00
 -0.17426E+01  0.15731E+01  0.00000E+00
 -0.24592E+01  0.17512E+01  0.00000E+00
 -0.23909E+01  0.17515E+01  0.00000E+00
 -0.22121E+01  0.17523E+01  0.00000E+00
 -0.19910E+01  0.17533E+01  0.00000E+00
 -0.18121E+01  0.17541E+01  0.00000E+00
 -0.17438E+01  0.17544E+01  0.00000E+00
 -0.24764E+01  0.19844E+01  0.00000E+00
 -0.24066E+01  0.19838E+01  0.00000E+00
 -0.22238E+01  0.19824E+01  0.00000E+00
 -0.19979E+01  0.19806E+01  0.00000E+00
 -0.18151E+01  0.19792E+01  0.00000E+00
 -0.17453E+01  0.19786E+01  0.00000E+00
 -0.24902E+01  0.21730E+01  0.00000E+00
 -0.24192E+01  0.21717E+01  0.00000E+00
 -0.22333E+01  0.21685E+01  0.00000E+00
 -0.20034E+01  0.21645E+01  0.00000E+00
 -0.18175E+01  0.21612E+01  0.00000E+00
 -0.17465E+01  0.21600E+01  0.00000E+00
 -0.24955E+01  0.22450E+01  0.00000E+00
 -0.24240E+01  0.22435E+01  0.00000E+00
 -0.22369E+01  0.22396E+01  0.00000E+00
 -0.20055E+01  0.22347E+01  0.00000E+00
 -0.18184E+01  0.22308E+01  0.00000E+00
 -0.17469E+01  0.22293E+01  0.00000E+00
 ZONE I=           6 ,J=           6 , F=POINT
 -0.17422E+01  0.15038E+01  0.00000E+00
 -0.16716E+01  0.15039E+01  0.00000E+00
 -0.14869E+01  0.15043E+01  0.00000E+00
 -0.12585E+01  0.15047E+01  0.00000E+00
 -0.10737E+01  0.15051E+01  0.00000E+00
 -0.10032E+01  0.15052E+01  0.00000E+00
 -0.17426E+01  0.15731E+01  0.00000E+00
 -0.16721E+01  0.15734E+01  0.00000E+00
 -0.14875E+01  0.15744E+01  0.00000E+00
 -0.12593E+01  0.15756E+01  0.00000E+00
 -0.10747E+01  0.15766E+01  0.00000E+00
 -0.10041E+01  0.15770E+01  0.00000E+00
 -0.17438E+01  0.17544E+01  0.00000E+00
 -0.16734E+01  0.17554E+01  0.00000E+00
 -0.14891E+01  0.17580E+01  0.00000E+00
 -0.12614E+01  0.17612E+01  0.00000E+00
 -0.10771E+01  0.17638E+01  0.00000E+00
 -0.10067E+01  0.17648E+01  0.00000E+00
 -0.17453E+01  0.19786E+01  0.00000E+00
 -0.16750E+01  0.19804E+01  0.00000E+00
 -0.14912E+01  0.19850E+01  0.00000E+00
 -0.12639E+01  0.19907E+01  0.00000E+00
 -0.10801E+01  0.19953E+01  0.00000E+00
 -0.10098E+01  0.19971E+01  0.00000E+00
 -0.17465E+01  0.21600E+01  0.00000E+00
 -0.16764E+01  0.21624E+01  0.00000E+00
 -0.14928E+01  0.21686E+01  0.00000E+00
 -0.12660E+01  0.21763E+01  0.00000E+00
 -0.10825E+01  0.21826E+01  0.00000E+00
 -0.10124E+01  0.21850E+01  0.00000E+00
 -0.17469E+01  0.22293E+01  0.00000E+00
 -0.16769E+01  0.22319E+01  0.00000E+00
 -0.14935E+01  0.22388E+01  0.00000E+00
 -0.12668E+01  0.22472E+01  0.00000E+00
 -0.10834E+01  0.22541E+01  0.00000E+00
 -0.10134E+01  0.22567E+01  0.00000E+00
 ZONE I=           6 ,J=           6 , F=POINT
 -0.10032E+01  0.15052E+01  0.00000E+00
 -0.93145E+00  0.15053E+01  0.00000E+00
 -0.74367E+00  0.15054E+01  0.00000E+00
 -0.51157E+00  0.15056E+01  0.00000E+00
 -0.32379E+00  0.15058E+01  0.00000E+00
 -0.25207E+00  0.15059E+01  0.00000E+00
 -0.10041E+01  0.15770E+01  0.00000E+00
 -0.93235E+00  0.15770E+01  0.00000E+00
 -0.74441E+00  0.15771E+01  0.00000E+00
 -0.51210E+00  0.15772E+01  0.00000E+00
 -0.32415E+00  0.15773E+01  0.00000E+00
 -0.25236E+00  0.15773E+01  0.00000E+00
 -0.10067E+01  0.17648E+01  0.00000E+00
 -0.93473E+00  0.17648E+01  0.00000E+00
 -0.74634E+00  0.17647E+01  0.00000E+00
 -0.51348E+00  0.17646E+01  0.00000E+00
 -0.32509E+00  0.17645E+01  0.00000E+00
 -0.25313E+00  0.17645E+01  0.00000E+00
 -0.10098E+01  0.19971E+01  0.00000E+00
 -0.93767E+00  0.19970E+01  0.00000E+00
 -0.74873E+00  0.19967E+01  0.00000E+00
 -0.51519E+00  0.19963E+01  0.00000E+00
 -0.32624E+00  0.19960E+01  0.00000E+00
 -0.25408E+00  0.19959E+01  0.00000E+00
 -0.10124E+01  0.21850E+01  0.00000E+00
 -0.94005E+00  0.21848E+01  0.00000E+00
 -0.75066E+00  0.21843E+01  0.00000E+00
 -0.51657E+00  0.21837E+01  0.00000E+00
 -0.32718E+00  0.21832E+01  0.00000E+00
 -0.25484E+00  0.21830E+01  0.00000E+00
 -0.10134E+01  0.22567E+01  0.00000E+00
 -0.94096E+00  0.22565E+01  0.00000E+00
 -0.75140E+00  0.22560E+01  0.00000E+00
 -0.51710E+00  0.22553E+01  0.00000E+00
 -0.32754E+00  0.22547E+01  0.00000E+00
 -0.25513E+00  0.22545E+01  0.00000E+00
 ZONE I=           6 ,J=           6 , F=POINT
 -0.25207E+00  0.15059E+01  0.00000E+00
 -0.17993E+00  0.15060E+01  0.00000E+00
  0.89528E-02  0.15063E+01  0.00000E+00
  0.24242E+00  0.15067E+01  0.00000E+00
  0.43130E+00  0.15071E+01  0.00000E+00
  0.50344E+00  0.15072E+01  0.00000E+00
 -0.25236E+00  0.15773E+01  0.00000E+00
 -0.18019E+00  0.15775E+01  0.00000E+00
  0.87473E-02  0.15778E+01  0.00000E+00
  0.24229E+00  0.15782E+01  0.00000E+00
  0.43123E+00  0.15785E+01  0.00000E+00
  0.50340E+00  0.15786E+01  0.00000E+00
 -0.25313E+00  0.17645E+01  0.00000E+00
 -0.18090E+00  0.17646E+01  0.00000E+00
  0.82092E-02  0.17649E+01  0.00000E+00
  0.24196E+00  0.17652E+01  0.00000E+00
  0.43106E+00  0.17655E+01  0.00000E+00
  0.50330E+00  0.17656E+01  0.00000E+00
 -0.25408E+00  0.19959E+01  0.00000E+00
 -0.18177E+00  0.19959E+01  0.00000E+00
  0.75440E-02  0.19961E+01  0.00000E+00
  0.24154E+00  0.19964E+01  0.00000E+00
  0.43085E+00  0.19966E+01  0.00000E+00
  0.50316E+00  0.19967E+01  0.00000E+00
 -0.25484E+00  0.21830E+01  0.00000E+00
 -0.18247E+00  0.21831E+01  0.00000E+00
  0.70059E-02  0.21832E+01  0.00000E+00
  0.24121E+00  0.21834E+01  0.00000E+00
  0.43068E+00  0.21835E+01  0.00000E+00
  0.50306E+00  0.21836E+01  0.00000E+00
 -0.25513E+00  0.22545E+01  0.00000E+00
 -0.18274E+00  0.22546E+01  0.00000E+00
  0.68004E-02  0.22547E+01  0.00000E+00
  0.24108E+00  0.22548E+01  0.00000E+00
  0.43062E+00  0.22550E+01  0.00000E+00
  0.50302E+00  0.22550E+01  0.00000E+00
 ZONE I=           6 ,J=           6 , F=POINT
  0.50344E+00  0.15072E+01  0.00000E+00
  0.57590E+00  0.15069E+01  0.00000E+00
  0.76561E+00  0.15062E+01  0.00000E+00
  0.10001E+01  0.15054E+01  0.00000E+00
  0.11898E+01  0.15046E+01  0.00000E+00
  0.12623E+01  0.15044E+01  0.00000E+00
  0.50340E+00  0.15786E+01  0.00000E+00
  0.57587E+00  0.15785E+01  0.00000E+00
  0.76560E+00  0.15782E+01  0.00000E+00
  0.10001E+01  0.15779E+01  0.00000E+00
  0.11898E+01  0.15776E+01  0.00000E+00
  0.12623E+01  0.15775E+01  0.00000E+00
  0.50330E+00  0.17656E+01  0.00000E+00
  0.57578E+00  0.17659E+01  0.00000E+00
  0.76555E+00  0.17667E+01  0.00000E+00
  0.10001E+01  0.17677E+01  0.00000E+00
  0.11899E+01  0.17685E+01  0.00000E+00
  0.12624E+01  0.17688E+01  0.00000E+00
  0.50316E+00  0.19967E+01  0.00000E+00
  0.57567E+00  0.19975E+01  0.00000E+00
  0.76550E+00  0.19996E+01  0.00000E+00
  0.10001E+01  0.20023E+01  0.00000E+00
  0.11900E+01  0.20044E+01  0.00000E+00
  0.12625E+01  0.20053E+01  0.00000E+00
  0.50306E+00  0.21836E+01  0.00000E+00
  0.57558E+00  0.21848E+01  0.00000E+00
  0.76546E+00  0.21881E+01  0.00000E+00
  0.10002E+01  0.21921E+01  0.00000E+00
  0.11900E+01  0.21953E+01  0.00000E+00
  0.12626E+01  0.21966E+01  0.00000E+00
  0.50302E+00  0.22550E+01  0.00000E+00
  0.57555E+00  0.22564E+01  0.00000E+00
  0.76544E+00  0.22601E+01  0.00000E+00
  0.10002E+01  0.22646E+01  0.00000E+00
  0.11901E+01  0.22683E+01  0.00000E+00
  0.12626E+01  0.22697E+01  0.00000E+00
 ZONE I=           6 ,J=           6 , F=POINT
  0.12623E+01  0.15044E+01  0.00000E+00
  0.13336E+01  0.14973E+01  0.00000E+00
  0.15203E+01  0.14787E+01  0.00000E+00
  0.17510E+01  0.14556E+01  0.00000E+00
  0.19377E+01  0.14370E+01  0.00000E+00
  0.20091E+01  0.14299E+01  0.00000E+00
  0.12623E+01  0.15775E+01  0.00000E+00
  0.13346E+01  0.15716E+01  0.00000E+00
  0.15237E+01  0.15561E+01  0.00000E+00
  0.17575E+01  0.15371E+01  0.00000E+00
  0.19467E+01  0.15216E+01  0.00000E+00
  0.20189E+01  0.15157E+01  0.00000E+00
  0.12624E+01  0.17688E+01  0.00000E+00
  0.13371E+01  0.17661E+01  0.00000E+00
  0.15327E+01  0.17590E+01  0.00000E+00
  0.17744E+01  0.17502E+01  0.00000E+00
  0.19700E+01  0.17431E+01  0.00000E+00
  0.20447E+01  0.17404E+01  0.00000E+00
  0.12625E+01  0.20053E+01  0.00000E+00
  0.13402E+01  0.20065E+01  0.00000E+00
  0.15438E+01  0.20097E+01  0.00000E+00
  0.17954E+01  0.20137E+01  0.00000E+00
  0.19989E+01  0.20169E+01  0.00000E+00
  0.20766E+01  0.20181E+01  0.00000E+00
  0.12626E+01  0.21966E+01  0.00000E+00
  0.13428E+01  0.22010E+01  0.00000E+00
  0.15527E+01  0.22126E+01  0.00000E+00
  0.18123E+01  0.22268E+01  0.00000E+00
  0.20223E+01  0.22384E+01  0.00000E+00
  0.21025E+01  0.22428E+01  0.00000E+00
  0.12626E+01  0.22697E+01  0.00000E+00
  0.13437E+01  0.22753E+01  0.00000E+00
  0.15562E+01  0.22900E+01  0.00000E+00
  0.18187E+01  0.23083E+01  0.00000E+00
  0.20312E+01  0.23230E+01  0.00000E+00
  0.21123E+01  0.23286E+01  0.00000E+00
 ZONE I=           6 ,J=           6 , F=POINT
  0.20091E+01  0.14299E+01  0.00000E+00
  0.20882E+01  0.13999E+01  0.00000E+00
  0.22955E+01  0.13213E+01  0.00000E+00
  0.25517E+01  0.12242E+01  0.00000E+00
  0.27590E+01  0.11456E+01  0.00000E+00
  0.28381E+01  0.11155E+01  0.00000E+00
  0.20189E+01  0.15157E+01  0.00000E+00
  0.20961E+01  0.14856E+01  0.00000E+00
  0.22980E+01  0.14067E+01  0.00000E+00
  0.25477E+01  0.13093E+01  0.00000E+00
  0.27496E+01  0.12304E+01  0.00000E+00
  0.28268E+01  0.12003E+01  0.00000E+00
  0.20447E+01  0.17404E+01  0.00000E+00
  0.21166E+01  0.17100E+01  0.00000E+00
  0.23047E+01  0.16304E+01  0.00000E+00
  0.25371E+01  0.15320E+01  0.00000E+00
  0.27252E+01  0.14524E+01  0.00000E+00
  0.27971E+01  0.14220E+01  0.00000E+00
  0.20766E+01  0.20181E+01  0.00000E+00
  0.21419E+01  0.19874E+01  0.00000E+00
  0.23129E+01  0.19069E+01  0.00000E+00
  0.25241E+01  0.18074E+01  0.00000E+00
  0.26951E+01  0.17269E+01  0.00000E+00
  0.27603E+01  0.16962E+01  0.00000E+00
  0.21025E+01  0.22428E+01  0.00000E+00
  0.21624E+01  0.22118E+01  0.00000E+00
  0.23195E+01  0.21306E+01  0.00000E+00
  0.25136E+01  0.20302E+01  0.00000E+00
  0.26707E+01  0.19490E+01  0.00000E+00
  0.27306E+01  0.19180E+01  0.00000E+00
  0.21123E+01  0.23286E+01  0.00000E+00
  0.21703E+01  0.22975E+01  0.00000E+00
  0.23220E+01  0.22160E+01  0.00000E+00
  0.25096E+01  0.21153E+01  0.00000E+00
  0.26613E+01  0.20338E+01  0.00000E+00
  0.27193E+01  0.20027E+01  0.00000E+00
 ZONE I=           6 ,J=           6 , F=POINT
 -0.24955E+01  0.22450E+01  0.00000E+00
 -0.24240E+01  0.22435E+01  0.00000E+00
 -0.22369E+01  0.22396E+01  0.00000E+00
 -0.20055E+01  0.22347E+01  0.00000E+00
 -0.18184E+01  0.22308E+01  0.00000E+00
 -0.17469E+01  0.22293E+01  0.00000E+00
 -0.24748E+01  0.22952E+01  0.00000E+00
 -0.24058E+01  0.22948E+01  0.00000E+00
 -0.22252E+01  0.22938E+01  0.00000E+00
 -0.20019E+01  0.22926E+01  0.00000E+00
 -0.18213E+01  0.22917E+01  0.00000E+00
 -0.17523E+01  0.22913E+01  0.00000E+00
 -0.24206E+01  0.24265E+01  0.00000E+00
 -0.23582E+01  0.24291E+01  0.00000E+00
 -0.21946E+01  0.24359E+01  0.00000E+00
 -0.19925E+01  0.24443E+01  0.00000E+00
 -0.18290E+01  0.24511E+01  0.00000E+00
 -0.17665E+01  0.24537E+01  0.00000E+00
 -0.23536E+01  0.25888E+01  0.00000E+00
 -0.22992E+01  0.25951E+01  0.00000E+00
 -0.21569E+01  0.26115E+01  0.00000E+00
 -0.19809E+01  0.26318E+01  0.00000E+00
 -0.18385E+01  0.26482E+01  0.00000E+00
 -0.17841E+01  0.26544E+01  0.00000E+00
 -0.22994E+01  0.27202E+01  0.00000E+00
 -0.22516E+01  0.27294E+01  0.00000E+00
 -0.21263E+01  0.27536E+01  0.00000E+00
 -0.19715E+01  0.27834E+01  0.00000E+00
 -0.18462E+01  0.28076E+01  0.00000E+00
 -0.17983E+01  0.28168E+01  0.00000E+00
 -0.22787E+01  0.27703E+01  0.00000E+00
 -0.22334E+01  0.27807E+01  0.00000E+00
 -0.21146E+01  0.28078E+01  0.00000E+00
 -0.19679E+01  0.28414E+01  0.00000E+00
 -0.18491E+01  0.28685E+01  0.00000E+00
 -0.18038E+01  0.28789E+01  0.00000E+00
 ZONE I=           6 ,J=           6 , F=POINT
 -0.17469E+01  0.22293E+01  0.00000E+00
 -0.16769E+01  0.22319E+01  0.00000E+00
 -0.14935E+01  0.22388E+01  0.00000E+00
 -0.12668E+01  0.22472E+01  0.00000E+00
 -0.10834E+01  0.22541E+01  0.00000E+00
 -0.10134E+01  0.22567E+01  0.00000E+00
 -0.17523E+01  0.22913E+01  0.00000E+00
 -0.16819E+01  0.22955E+01  0.00000E+00
 -0.14976E+01  0.23066E+01  0.00000E+00
 -0.12698E+01  0.23202E+01  0.00000E+00
 -0.10854E+01  0.23313E+01  0.00000E+00
 -0.10150E+01  0.23355E+01  0.00000E+00
 -0.17665E+01  0.24537E+01  0.00000E+00
 -0.16952E+01  0.24621E+01  0.00000E+00
 -0.15084E+01  0.24841E+01  0.00000E+00
 -0.12776E+01  0.25113E+01  0.00000E+00
 -0.10908E+01  0.25333E+01  0.00000E+00
 -0.10194E+01  0.25417E+01  0.00000E+00
 -0.17841E+01  0.26544E+01  0.00000E+00
 -0.17116E+01  0.26680E+01  0.00000E+00
 -0.15218E+01  0.27035E+01  0.00000E+00
 -0.12872E+01  0.27475E+01  0.00000E+00
 -0.10974E+01  0.27830E+01  0.00000E+00
 -0.10249E+01  0.27966E+01  0.00000E+00
 -0.17983E+01  0.28168E+01  0.00000E+00
 -0.17249E+01  0.28346E+01  0.00000E+00
 -0.15326E+01  0.28811E+01  0.00000E+00
 -0.12950E+01  0.29385E+01  0.00000E+00
 -0.11027E+01  0.29850E+01  0.00000E+00
 -0.10293E+01  0.30028E+01  0.00000E+00
 -0.18038E+01  0.28789E+01  0.00000E+00
 -0.17300E+01  0.28982E+01  0.00000E+00
 -0.15368E+01  0.29489E+01  0.00000E+00
 -0.12979E+01  0.30115E+01  0.00000E+00
 -0.11047E+01  0.30622E+01  0.00000E+00
 -0.10309E+01  0.30815E+01  0.00000E+00
 ZONE I=           6 ,J=           6 , F=POINT
 -0.10134E+01  0.22567E+01  0.00000E+00
 -0.94096E+00  0.22565E+01  0.00000E+00
 -0.75140E+00  0.22560E+01  0.00000E+00
 -0.51710E+00  0.22553E+01  0.00000E+00
 -0.32754E+00  0.22547E+01  0.00000E+00
 -0.25513E+00  0.22545E+01  0.00000E+00
 -0.10150E+01  0.23355E+01  0.00000E+00
 -0.94229E+00  0.23340E+01  0.00000E+00
 -0.75183E+00  0.23302E+01  0.00000E+00
 -0.51641E+00  0.23255E+01  0.00000E+00
 -0.32595E+00  0.23217E+01  0.00000E+00
 -0.25320E+00  0.23203E+01  0.00000E+00
 -0.10194E+01  0.25417E+01  0.00000E+00
 -0.94578E+00  0.25370E+01  0.00000E+00
 -0.75295E+00  0.25246E+01  0.00000E+00
 -0.51461E+00  0.25094E+01  0.00000E+00
 -0.32178E+00  0.24970E+01  0.00000E+00
 -0.24813E+00  0.24923E+01  0.00000E+00
 -0.10249E+01  0.27966E+01  0.00000E+00
 -0.95009E+00  0.27878E+01  0.00000E+00
 -0.75434E+00  0.27649E+01  0.00000E+00
 -0.51238E+00  0.27366E+01  0.00000E+00
 -0.31663E+00  0.27137E+01  0.00000E+00
 -0.24186E+00  0.27049E+01  0.00000E+00
 -0.10293E+01  0.30028E+01  0.00000E+00
 -0.95358E+00  0.29908E+01  0.00000E+00
 -0.75546E+00  0.29593E+01  0.00000E+00
 -0.51058E+00  0.29204E+01  0.00000E+00
 -0.31246E+00  0.28890E+01  0.00000E+00
 -0.23679E+00  0.28770E+01  0.00000E+00
 -0.10309E+01  0.30815E+01  0.00000E+00
 -0.95492E+00  0.30683E+01  0.00000E+00
 -0.75589E+00  0.30336E+01  0.00000E+00
 -0.50989E+00  0.29907E+01  0.00000E+00
 -0.31087E+00  0.29559E+01  0.00000E+00
 -0.23485E+00  0.29427E+01  0.00000E+00
 ZONE I=           6 ,J=           6 , F=POINT
 -0.25513E+00  0.22545E+01  0.00000E+00
 -0.18274E+00  0.22546E+01  0.00000E+00
  0.68004E-02  0.22547E+01  0.00000E+00
  0.24108E+00  0.22548E+01  0.00000E+00
  0.43062E+00  0.22550E+01  0.00000E+00
  0.50302E+00  0.22550E+01  0.00000E+00
 -0.25320E+00  0.23203E+01  0.00000E+00
 -0.18120E+00  0.23202E+01  0.00000E+00
  0.73029E-02  0.23202E+01  0.00000E+00
  0.24030E+00  0.23202E+01  0.00000E+00
  0.42880E+00  0.23202E+01  0.00000E+00
  0.50080E+00  0.23202E+01  0.00000E+00
 -0.24813E+00  0.24923E+01  0.00000E+00
 -0.17716E+00  0.24922E+01  0.00000E+00
  0.86185E-02  0.24918E+01  0.00000E+00
  0.23826E+00  0.24914E+01  0.00000E+00
  0.42404E+00  0.24910E+01  0.00000E+00
  0.49500E+00  0.24909E+01  0.00000E+00
 -0.24186E+00  0.27049E+01  0.00000E+00
 -0.17218E+00  0.27046E+01  0.00000E+00
  0.10245E-01  0.27039E+01  0.00000E+00
  0.23573E+00  0.27029E+01  0.00000E+00
  0.41815E+00  0.27022E+01  0.00000E+00
  0.48783E+00  0.27019E+01  0.00000E+00
 -0.23679E+00  0.28770E+01  0.00000E+00
 -0.16814E+00  0.28766E+01  0.00000E+00
  0.11560E-01  0.28755E+01  0.00000E+00
  0.23369E+00  0.28741E+01  0.00000E+00
  0.41339E+00  0.28730E+01  0.00000E+00
  0.48203E+00  0.28726E+01  0.00000E+00
 -0.23485E+00  0.29427E+01  0.00000E+00
 -0.16660E+00  0.29422E+01  0.00000E+00
  0.12063E-01  0.29410E+01  0.00000E+00
  0.23291E+00  0.29395E+01  0.00000E+00
  0.41157E+00  0.29382E+01  0.00000E+00
  0.47982E+00  0.29378E+01  0.00000E+00
 ZONE I=           6 ,J=           6 , F=POINT
  0.50302E+00  0.22550E+01  0.00000E+00
  0.57555E+00  0.22564E+01  0.00000E+00
  0.76544E+00  0.22601E+01  0.00000E+00