 VARIABLES = "X", "Y", "Z", "Material ID"
 ZONE F=FEPOINT, ET=QUADRILATERAL, N=         811 E=         790
  -10.000000000000000       -10.000000000000000        0.0000000000000000                1
  -8.0000000000000000       -10.000000000000000        0.0000000000000000                1
  -6.0000000000000000       -10.000000000000000        0.0000000000000000                1
  -4.0000000000000000       -10.000000000000000        0.0000000000000000                1
  -2.0000000000000000       -10.000000000000000        0.0000000000000000                1
   0.0000000000000000       -10.000000000000000        0.0000000000000000                1
   2.0000000000000000       -10.000000000000000        0.0000000000000000                1
   4.0000000000000000       -10.000000000000000        0.0000000000000000                1
   6.0000000000000000       -10.000000000000000        0.0000000000000000                1
   8.0000000000000000       -10.000000000000000        0.0000000000000000                1
   10.000000000000000       -10.000000000000000        0.0000000000000000                1
  -10.000000000000000       -8.0000000000000000        0.0000000000000000                1
  -7.8688964618749999       -7.8688964618749999        0.0000000000000000                1
  -5.9941524612499997       -8.1746042325000019        0.0000000000000000                1
  -3.9998860899999999       -7.7602192687500002        0.0000000000000000                1
  -1.9999997949999999       -8.1690411587499998        0.0000000000000000                1
  -6.2999999999355249E-007  -7.7601176087500008        0.0000000000000000                1
   1.9999997949999999       -8.1690411587499998        0.0000000000000000                1
   3.9998860899999999       -7.7602192687500002        0.0000000000000000                1
   5.9941524612499997       -8.1746042325000019        0.0000000000000000                1
   7.8688964618749999       -7.8688964618749999        0.0000000000000000                1
   10.000000000000000       -8.0000000000000000        0.0000000000000000                1
  -10.000000000000000       -6.0000000000000000        0.0000000000000000                1
  -8.1746045325000001       -5.9941527612499996        0.0000000000000000                1
  -5.9993784321874992       -5.9993784321874992        0.0000000000000000                1
  -3.9985147315625000       -6.0870688559374999        0.0000000000000000                1
  -2.0015370109375001       -6.0013783934374993        0.0000000000000000                1
  -1.0748500000000384E-004  -6.0845606043750005        0.0000000000000000                1
   2.0014927509375000       -6.0013724759375000        0.0000000000000000                1
   3.9985147265625001       -6.0870688459375000        0.0000000000000000                1
   5.9993784321874992       -5.9993784321874992        0.0000000000000000                1
   8.1746042325000019       -5.9941524612499997        0.0000000000000000                1
   10.000000000000000       -6.0000000000000000        0.0000000000000000                1
  -10.000000000000000       -4.0000000000000000        0.0000000000000000                1
  -7.7603039337500004       -3.9999717549999998        0.0000000000000000                1
  -6.0870693359374997       -3.9985152115624998        0.0000000000000000                1
  -3.9676209320312497       -3.9676209320312497        0.0000000000000000                1
  -2.0339909715625004       -3.9691519454687501        0.0000000000000000                1
  -9.1373961249999996E-002  -3.9584157218750007        0.0000000000000000                1
   2.0283325817187503       -3.9674659057812498        0.0000000000000000                1
   3.9676107807812500       -3.9676107807812500        0.0000000000000000                1
   6.0870688459375000       -3.9985147265625001        0.0000000000000000                1
   7.7602192687500002       -3.9998860899999999        0.0000000000000000                1
   10.000000000000000       -4.0000000000000000        0.0000000000000000                1
  -10.000000000000000       -2.0000000000000000        0.0000000000000000                1
  -8.1746913425000010       -2.0059099887500000        0.0000000000000000                1
  -6.0015134459375004       -2.0015114734375001        0.0000000000000000                1
  -3.9691518954687499       -2.0339905015625002        0.0000000000000000                1
  -2.0000000000000000       -2.0000000000000000        0.0000000000000000                1
  -3.2326608124999996E-002  -1.9715289843749999        0.0000000000000000                1
   2.0328148057812503       -2.0328148057812503        0.0000000000000000                1
   3.9674659057812498       -2.0283325817187503        0.0000000000000000                1
   6.0013724759375000       -2.0014927509375000        0.0000000000000000                1
   8.1690411587499998       -1.9999997949999999        0.0000000000000000                1
   10.000000000000000       -2.0000000000000000        0.0000000000000000                1
  -10.000000000000000        0.0000000000000000        0.0000000000000000                1
  -7.8727815043750002      -0.13593923124999999        0.0000000000000000                1
  -6.1323203865624993       0.13212100406250005        0.0000000000000000                1
  -3.9350428437499998       -6.4983368750000006E-002   0.0000000000000000                1
  -1.9675406418749999       -3.2459358125000011E-002   0.0000000000000000                1
   0.0000000000000000        1.3877787807814457E-019   0.0000000000000000                1
   1.9715289843749999        3.2326608124999996E-002   0.0000000000000000                1
   3.9584157218750007        9.1373961249999983E-002   0.0000000000000000                1
   6.0845606043750005        1.0748500000000105E-004   0.0000000000000000                1
   7.7601176087500008        6.3000000000382203E-007   0.0000000000000000                1
   10.000000000000000        0.0000000000000000        0.0000000000000000                1
  -10.000000000000000        2.0000000000000000        0.0000000000000000                1
  -7.9912547168749999        1.9911512618750000        0.0000000000000000                1
  -5.8679111312500005        1.8678587662500001        0.0000000000000000                1
  -4.1321934840625003        2.1321933040624996        0.0000000000000000                1
  -1.9350283437500000        1.9350283437500000        0.0000000000000000                1
   3.2459358125000004E-002   1.9675406418749999        0.0000000000000000                1
   2.0000000000000000        2.0000000000000000        0.0000000000000000                1
   3.9691777904687497        2.0339649340625003        0.0000000000000000                1
   6.0013812384375003        2.0015283509375004        0.0000000000000000                1
   8.1690411587499998        1.9999997949999999        0.0000000000000000                1
   10.000000000000000        2.0000000000000000        0.0000000000000000                1
  -10.000000000000000        4.0000000000000000        0.0000000000000000                1
  -7.9968694231249993        3.9968689731250002        0.0000000000000000                1
  -5.9911102568749994        3.9911098968750003        0.0000000000000000                1
  -3.8678815512500000        3.8678815512500000        0.0000000000000000                1
  -2.1321933040624996        4.1321934840625003        0.0000000000000000                1
   6.4983368749999992E-002   3.9350428437499998        0.0000000000000000                1
   2.0339644640625001        3.9691777404687496        0.0000000000000000                1
   3.9996510248437502        3.9996510248437502        0.0000000000000000                1
   6.0870717459374983        3.9985061965624999        0.0000000000000000                1
   7.7602192887499992        3.9998860299999999        0.0000000000000000                1
   10.000000000000000        4.0000000000000000        0.0000000000000000                1
  -10.000000000000000        6.0000000000000000        0.0000000000000000                1
  -7.9998777299999997        5.9998777299999997        0.0000000000000000                1
  -5.9968509081249994        5.9968509081249994        0.0000000000000000                1
  -3.9911098968750003        5.9911102568749994        0.0000000000000000                1
  -1.8678587662500001        5.8679111312500005        0.0000000000000000                1
 -0.13212100406250005        6.1323203865624993        0.0000000000000000                1
   2.0015028134375004        6.0015162909375004        0.0000000000000000                1
   3.9985066765625001        6.0870722259374990        0.0000000000000000                1
   5.9993784671874995        5.9993784671874995        0.0000000000000000                1
   8.1746042325000019        5.9941524612499997        0.0000000000000000                1
   10.000000000000000        6.0000000000000000        0.0000000000000000                1
  -10.000000000000000        8.0000000000000000        0.0000000000000000                1
  -7.9999815850000005        7.9999815850000005        0.0000000000000000                1
  -5.9998777299999997        7.9998777299999997        0.0000000000000000                1
  -3.9968689731250002        7.9968694231249993        0.0000000000000000                1
  -1.9911512618750000        7.9912547168749999        0.0000000000000000                1
  0.13593923124999999        7.8727815043750002        0.0000000000000000                1
   2.0059099887500000        8.1746913425000010        0.0000000000000000                1
   3.9999716950000002        7.7603039537500003        0.0000000000000000                1
   5.9941527612499996        8.1746045325000001        0.0000000000000000                1
   7.8688964618749999        7.8688964618749999        0.0000000000000000                1
   10.000000000000000        8.0000000000000000        0.0000000000000000                1
  -10.000000000000000        10.000000000000000        0.0000000000000000                1
  -8.0000000000000000        10.000000000000000        0.0000000000000000                1
  -6.0000000000000000        10.000000000000000        0.0000000000000000                1
  -4.0000000000000000        10.000000000000000        0.0000000000000000                1
  -2.0000000000000000        10.000000000000000        0.0000000000000000                1
   0.0000000000000000        10.000000000000000        0.0000000000000000                1
   2.0000000000000000        10.000000000000000        0.0000000000000000                1
   4.0000000000000000        10.000000000000000        0.0000000000000000                1
   6.0000000000000000        10.000000000000000        0.0000000000000000                1
   8.0000000000000000        10.000000000000000        0.0000000000000000                1
   10.000000000000000        10.000000000000000        0.0000000000000000                1
  -6.9464148468749993       -6.9464148468749993        0.0000000000000000                1
  -5.9969779381250001       -6.9959925474999993        0.0000000000000000                1
  -6.9959926975000002       -5.9969780881249992        0.0000000000000000                1
  -5.0514164693749999       -6.9447865831249986        0.0000000000000000                1
  -5.0000787149999999       -6.0436706343750002        0.0000000000000000                1
  -2.9484786906250000       -6.9447304681249999        0.0000000000000000                1
  -2.0000347150000004       -6.9941396012500006        0.0000000000000000                1
  -2.9979748437499998       -6.0428513737500005        0.0000000000000000                1
  -1.0515650118749997       -6.9447265256249997        0.0000000000000000                1
  -1.0050274631250000       -6.0436620643749990        0.0000000000000000                1
   1.0515640468749998       -6.9447264756250000        0.0000000000000000                1
   2.0000343050000002       -6.9941395612499999        0.0000000000000000                1
   1.0048760581250000       -6.0436503843750007        0.0000000000000000                1
   2.9484786156250005       -6.9447304581249991        0.0000000000000000                1
   2.9979744987499997       -6.0428513087499995        0.0000000000000000                1
   5.0514164693749999       -6.9447865831249986        0.0000000000000000                1
   5.9969779381250001       -6.9959925474999993        0.0000000000000000                1
   5.0000787149999999       -6.0436706343750002        0.0000000000000000                1
   6.9464148468749993       -6.9464148468749993        0.0000000000000000                1
   6.9959925474999993       -5.9969779381250001        0.0000000000000000                1
  -6.9447868831249986       -5.0514167693749998        0.0000000000000000                1
  -6.0436707843750002       -5.0000788650000008        0.0000000000000000                1
  -4.9382818634375001       -4.9382818634375001        0.0000000000000000                1
  -3.9970675856250000       -5.0931610875000004        0.0000000000000000                1
  -5.0931611175000002       -3.9970676156250002        0.0000000000000000                1
  -4.4725314942187495       -4.4725314942187495        0.0000000000000000                1
  -3.9970475081250001       -4.4976132884375000        0.0000000000000000                1
  -4.4976132884375000       -3.9970475081250001        0.0000000000000000                1
  -2.9999776450000004       -4.8830370537499999        0.0000000000000000                1
  -2.0030219093750001       -5.0893651450000004        0.0000000000000000                1
  -3.0000015637500002       -3.9783339540625002        0.0000000000000000                1
  -3.5249559267187496       -4.4722223464062498        0.0000000000000000                1
  -3.4995332571875002       -4.0659257418749997        0.0000000000000000                1
  -2.4750542745312498       -4.4722142239062501        0.0000000000000000                1
  -2.0030118806249999       -4.4981336150000013        0.0000000000000000                1
  -2.5004909790625001       -4.0659563381249999        0.0000000000000000                1
  -1.0685761846874999       -4.9407413912499996        0.0000000000000000                1
  -5.5296371874999917E-003  -5.0006051215625007        0.0000000000000000                1
 -0.93498341859375000       -4.0672228526562497        0.0000000000000000                1
  -1.5280739235937497       -4.4750828020312499        0.0000000000000000                1
  -1.5013021945312499       -4.0226017089062500        0.0000000000000000                1
   1.0610337337500002       -4.9397148918750000        0.0000000000000000                1
   2.0029133893749997       -5.0893502300000000        0.0000000000000000                1
  0.85590274968750013       -4.0411560215625002        0.0000000000000000                1
   1.5252945570312504       -4.4745010529687494        0.0000000000000000                1
   2.0023324340625002       -4.4980816187500006        0.0000000000000000                1
   1.4697511375000003       -4.0186473253125001        0.0000000000000000                1
   2.9999737674999998       -4.8830311387499998        0.0000000000000000                1
   3.9970675756250000       -5.0931610625000001        0.0000000000000000                1
   2.9999996499999999       -3.9778568575000004        0.0000000000000000                1
   2.4750142432812501       -4.4722019839062490        0.0000000000000000                1
   2.5004299065625002       -4.0659163968750009        0.0000000000000000                1
   3.5249558517187500       -4.4722194089062492        0.0000000000000000                1
   3.9970474456249998       -4.4976132134375000        0.0000000000000000                1
   3.4995202209375003       -4.0659141843750000        0.0000000000000000                1
   4.9382818634375001       -4.9382818634375001        0.0000000000000000                1
   6.0436706343750002       -5.0000787149999999        0.0000000000000000                1
   5.0931610625000001       -3.9970675756250000        0.0000000000000000                1
   4.4725314767187498       -4.4725314767187498        0.0000000000000000                1
   4.4976132134375000       -3.9970474456249998        0.0000000000000000                1
   6.9447865831249986       -5.0514164693749999        0.0000000000000000                1
  -6.9447999531249991       -2.9485485156249998        0.0000000000000000                1
  -6.0428695487499997       -2.9979923287500001        0.0000000000000000                1
  -6.9971049031249999       -2.0030446668749997        0.0000000000000000                1
  -4.8830374737500000       -2.9999773050000003        0.0000000000000000                1
  -3.9783339540625002       -3.0000015637500002        0.0000000000000000                1
  -5.0894001050000002       -2.0029355043749995        0.0000000000000000                1
  -4.4722223464062498       -3.5249559267187496        0.0000000000000000                1
  -4.0659257418749997       -3.4995332571875002        0.0000000000000000                1
  -4.4722142939062497       -2.4750540145312496        0.0000000000000000                1
  -4.0659563431250003       -2.5004909240625000        0.0000000000000000                1
  -4.4981366275000001       -2.0029796331249998        0.0000000000000000                1
  -3.0000291124999996       -3.0000291124999996        0.0000000000000000                1
  -1.9997234185937502       -3.0002766064062500        0.0000000000000000                1
  -3.0002766064062500       -1.9997234185937502        0.0000000000000000                1
  -3.5002706989062502       -3.5002706989062502        0.0000000000000000                1
  -3.0000088174999995       -3.5237995334375003        0.0000000000000000                1
  -3.5237995334375003       -3.0000088174999995        0.0000000000000000                1
  -3.7371351689062497       -3.7371351689062497        0.0000000000000000                1
  -3.4992850120312502       -3.7509526056249998        0.0000000000000000                1
  -3.7509526056249998       -3.4992850120312502        0.0000000000000000                1
  -3.2628732935937501       -3.7386437973437499        0.0000000000000000                1
  -3.2507655567187501       -3.5121660068750002        0.0000000000000000                1
  -3.7386437973437499       -3.2628732935937501        0.0000000000000000                1
  -3.5121660068750002       -3.2507655567187501        0.0000000000000000                1
  -3.2510203043749999       -3.2510203043749999        0.0000000000000000                1
  -3.0000218687500002       -3.2515108634374998        0.0000000000000000                1
  -3.2515108634374998       -3.0000218687500002        0.0000000000000000                1
  -2.4999942350000000       -3.5005414078125003        0.0000000000000000                1
  -1.9665453137500002       -3.5340017940625001        0.0000000000000000                1
  -2.4999897562500002       -3.0000190812500001        0.0000000000000000                1
  -2.7371313026562496       -3.7386483535937498        0.0000000000000000                1
  -2.5007409154687501       -3.7512335532812502        0.0000000000000000                1
  -2.7494980284374999       -3.5121690543749997        0.0000000000000000                1
  -2.2636284515625000       -3.7384232171875000        0.0000000000000000                1
  -2.2495282121875002       -3.5124089895312505        0.0000000000000000                1
  -2.7499942575000000       -3.2510189831250003        0.0000000000000000                1
  -2.4999783262499999       -3.2505313290625004        0.0000000000000000                1
  -2.7500000824999997       -3.0000233924999997        0.0000000000000000                1
  -2.2487599379687495       -3.2512520670312504        0.0000000000000000                1
  -1.9876128942187499       -3.2507701329687504        0.0000000000000000                1
  -2.2497322085937497       -3.0000262725000000        0.0000000000000000                1
  -3.5005414078125003       -2.4999942350000000        0.0000000000000000                1
  -3.0000190812500001       -2.4999897562500002        0.0000000000000000                1
  -3.5340017340625001       -1.9665451537499998        0.0000000000000000                1
  -3.7386483535937498       -2.7371313026562496        0.0000000000000000                1
  -3.5121690543749997       -2.7494980284374999        0.0000000000000000                1
  -3.7512335532812502       -2.5007409154687501        0.0000000000000000                1
  -3.2510189831250003       -2.7499942575000000        0.0000000000000000                1
  -3.0000233924999997       -2.7500000824999997        0.0000000000000000                1
  -3.2505313290625004       -2.4999783262499999        0.0000000000000000                1
  -3.7384232171875000       -2.2636284515625000        0.0000000000000000                1
  -3.5124089895312505       -2.2495282121875002        0.0000000000000000                1
  -3.2512520670312504       -2.2487599379687495        0.0000000000000000                1
  -3.0000262725000000       -2.2497322085937497        0.0000000000000000                1
  -3.2507701129687505       -1.9876128642187501        0.0000000000000000                1
  -2.5000000000000000       -2.5000000000000000        0.0000000000000000                1
  -1.9999897362500001       -2.5000102587500002        0.0000000000000000                1
  -2.5000102587500002       -1.9999897362500001        0.0000000000000000                1
  -2.7500001399999996       -2.7500001399999996        0.0000000000000000                1
  -2.4999984762499996       -2.7500001649999999        0.0000000000000000                1
  -2.7500001649999999       -2.4999984762499996        0.0000000000000000                1
  -2.2499954387500001       -2.7500045812500002        0.0000000000000000                1
  -1.9999752387500001       -2.7502678164062506        0.0000000000000000                1
  -2.2499999049999997       -2.5000015237500004        0.0000000000000000                1
  -2.7500045812500002       -2.2499954387500001        0.0000000000000000                1
  -2.5000015237500004       -2.2499999049999997        0.0000000000000000                1
  -2.7502678164062506       -1.9999752387500001        0.0000000000000000                1
  -2.2500000000000000       -2.2500000000000000        0.0000000000000000                1
  -1.9999984762500003       -2.2500000950000003        0.0000000000000000                1
  -2.2500000950000003       -1.9999984762500003        0.0000000000000000                1
  -1.0325231681250002       -2.9676046143749999        0.0000000000000000                1
   2.1540879531250015E-002  -3.1186070445312501        0.0000000000000000                1
 -0.99972355609375008       -2.0002767439062503        0.0000000000000000                1
  -1.5305842368750000       -3.4694646443749999        0.0000000000000000                1
 -0.97803141265625004       -3.4998300723437499        0.0000000000000000                1
  -1.4660258746875001       -3.0334887800000008        0.0000000000000000                1
  -1.7623176057812497       -3.2376826692187497        0.0000000000000000                1
  -1.7492301095312501       -3.0123888145312501        0.0000000000000000                1
 -0.52756014703124987       -3.4765973554687499        0.0000000000000000                1
 -0.50369321984374993       -3.0256508920312499        0.0000000000000000                1
  -1.4997235260937503       -2.5002764739062506        0.0000000000000000                1
 -0.96655490250000009       -2.5340187778125003        0.0000000000000000                1
  -1.4999897412500001       -2.0000102637500001        0.0000000000000000                1
  -1.7487524917187500       -2.7512446057812499        0.0000000000000000                1
  -1.4876170529687502       -2.7507528579687506        0.0000000000000000                1
  -1.7497321860937503       -2.5000247212500000        0.0000000000000000                1
  -1.2623406982812500       -2.7376598917187498        0.0000000000000000                1
  -1.2492475320312502       -2.5123833370312507        0.0000000000000000                1
  -1.7499954387500001       -2.2500045612499999        0.0000000000000000                1
  -1.4999752787500003       -2.2502678139062504        0.0000000000000000                1
  -1.7499999050000001       -2.0000015237500004        0.0000000000000000                1
  -1.2487555092187499       -2.2512476232812504        0.0000000000000000                1
 -0.98762291296875016       -2.2507819679687504        0.0000000000000000                1
  -1.2497322060937501       -2.0000247812500000        0.0000000000000000                1
 -0.53248476812500012       -2.4715663643750001        0.0000000000000000                1
   2.3693789062499927E-003  -2.5305267351562502        0.0000000000000000                1
 -0.46651948250000003       -2.0340935128125004        0.0000000000000000                1
 -0.76234348078124992       -2.2377094442187500        0.0000000000000000                1
 -0.74924736703125006       -2.0124068420312500        0.0000000000000000                1
   1.2029082125000001       -2.7980311831250004        0.0000000000000000                1
   2.0223184799999996       -2.9903613562500002        0.0000000000000000                1
   1.0092537757812499       -2.0428677414062499        0.0000000000000000                1
   1.3872635292187503       -3.4655652648437503        0.0000000000000000                1
   1.9291513925000001       -3.4933887221875000        0.0000000000000000                1
  0.53533936453125008       -2.6117339164062501        0.0000000000000000                1
  0.50344983203124993       -2.0250771442187503        0.0000000000000000                1
   1.5330966579687499       -2.4679402476562498        0.0000000000000000                1
   1.9357437140625000       -2.4963761515625000        0.0000000000000000                1
   1.5060940525000002       -2.0221800162500001        0.0000000000000000                1
   3.0000000000000000       -3.0000000000000000        0.0000000000000000                1
   3.9778568575000004       -2.9999996499999999        0.0000000000000000                1
   2.9903613562500002       -2.0223184799999996        0.0000000000000000                1
   2.5161428746093750       -3.4838556253906248        0.0000000000000000                1
   3.0000000000000000       -3.4907577387500002        0.0000000000000000                1
   2.5092428462500003       -2.9998861200000002        0.0000000000000000                1
   2.2631695788281250       -3.7367184761718746        0.0000000000000000                1
   2.5014324171875000       -3.7506970779687503        0.0000000000000000                1
   2.2492215620312499       -3.4984160128125001        0.0000000000000000                1
   2.7375159241406251       -3.7385103610156252        0.0000000000000000                1
   2.7502395820312504       -3.5339414815625005        0.0000000000000000                1
   2.2614610839843752       -3.2623332458593750        0.0000000000000000                1
   2.4660585884374995       -3.2497021479687498        0.0000000000000000                1
   2.7580689894921870       -3.2419310105078130        0.0000000000000000                1
   3.0000000000000000       -3.2455194513281249        0.0000000000000000                1
   2.7544805486718751       -2.9999996000000002        0.0000000000000000                1
   2.6316167325390625       -3.3683831674609377        0.0000000000000000                1
   2.7507279242187503       -3.3753718077343748        0.0000000000000000                1
   2.6246281922656252       -3.2492716757812499        0.0000000000000000                1
   2.8687580289453125       -3.3692844455078124        0.0000000000000000                1
   2.8751165544531250       -3.2669850857812501        0.0000000000000000                1
   2.6307155544921876       -3.1312414710546874        0.0000000000000000                1
   2.7330149142187499       -3.1248832455468749        0.0000000000000000                1
   2.8749322352734374       -3.1250677647265626        0.0000000000000000                1
   3.0000000000000000       -3.1309612883593751        0.0000000000000000                1
   2.8690387116406249       -3.0000000000000000        0.0000000000000000                1
   2.8157131702734377       -3.1842868297265623        0.0000000000000000                1
   2.8751786726171877       -3.1877497107812500        0.0000000000000000                1
   2.8122502892187500       -3.1248213273828123        0.0000000000000000                1
   2.9342816816015622       -3.1846753155859373        0.0000000000000000                1
   2.9373086183203121       -3.1280472710937497        0.0000000000000000                1
   2.8153246844140627       -3.0657183183984378        0.0000000000000000                1
   2.8719527289062503       -3.0626913816796879        0.0000000000000000                1
   2.9372449189062495       -3.0627550810937505        0.0000000000000000                1
   3.0000000000000000       -3.0628777314843751        0.0000000000000000                1
   2.9371222685156249       -3.0000000000000000        0.0000000000000000                1
   3.4838565853906251       -3.4838565853906251        0.0000000000000000                1