  TITLE = "SEM hex mesh" 
  VARIABLES = "x","y", "z"
 ZONE I=           5 ,J=           5 ,K=           5 , F=POINT
  -3.0000000000000000       -2.0000000000000000        1.0000000021202999     
  -2.8535533905932735       -2.0000000000000000        1.0000000106727416     
  -2.5000000000000000       -2.0000000000000000        1.0000002121283036     
  -2.1464466094067260       -2.0000000000000000        1.0000024688365883     
  -2.0000000000000000       -2.0000000000000000        1.0000050833393852     
  -3.0000000000000004       -1.8535533905932733        1.0000000000000000     
  -2.8535533905932726       -1.8535533905932733        1.0000000414424350     
  -2.5000000000000004       -1.8535533905932735        1.0000009615174381     
  -2.1464466094067260       -1.8535533905932733        1.0000103933037732     
  -2.0000000000000000       -1.8535533905932733        1.0000223952424023     
  -3.0000000000000000       -1.5000000000000000        1.0000001829513285     
  -2.8535533905932735       -1.5000000000000002        1.0000008639093767     
  -2.5000000000000000       -1.5000000000000000        1.0000200438028339     
  -2.1464466094067260       -1.5000000000000000        1.0002166593611235     
  -2.0000000000000000       -1.5000000000000000        1.0004668543823863     
  -3.0000000000000000       -1.1464466094067263        1.0000018770652579     
  -2.8535533905932735       -1.1464466094067263        1.0000084039358883     
  -2.5000000000000000       -1.1464466094067260        1.0001949821247600     
  -2.1464466094067260       -1.1464466094067263        1.0021076262264266     
  -2.0000000000000000       -1.1464466094067263        1.0045415138643823     
  -3.0000000000000000       -1.0000000000000000        1.0000037272567002     
  -2.8535533905932735       -1.0000000000000000        1.0000173231033513     
  -2.5000000000000000       -1.0000000000000000        1.0004019183527233     
  -2.1464466094067260       -1.0000000000000000        1.0043444770955179     
  -2.0000000000000000       -1.0000000000000000        1.0093615208601068     
  -3.0000000000000000       -2.0000000000000000        1.0488155385374569     
  -2.8535533905932735       -2.0000000000000000        1.0488155468811524     
  -2.5000000000000000       -2.0000000000000000        1.0488157434196339     
  -2.1464466094067260       -2.0000000000000000        1.0488179450467057     
  -2.0000000000000000       -2.0000000000000000        1.0488204957353244     
  -3.0000000000000004       -1.8535533905932733        1.0488155364689087     
  -2.8535533905932726       -1.8535533905932733        1.0488155768998264     
  -2.5000000000000004       -1.8535533905932735        1.0488164745178521     
  -2.1464466094067260       -1.8535533905932733        1.0488256760953323     
  -2.0000000000000000       -1.8535533905932733        1.0488373850934249     
  -3.0000000000000000       -1.5000000000000000        1.0488157149548036     
  -2.8535533905932735       -1.5000000000000002        1.0488163792921856     
  -2.5000000000000000       -1.5000000000000000        1.0488350910472486     
  -2.1464466094067260       -1.5000000000000000        1.0490269076585601     
  -2.0000000000000000       -1.5000000000000000        1.0492709959777304     
  -3.0000000000000000       -1.1464466094067263        1.0488173677191928     
  -2.8535533905932735       -1.1464466094067263        1.0488237352834777     
  -2.5000000000000000       -1.1464466094067260        1.0490057595151576     
  -2.1464466094067260       -1.1464466094067263        1.0508717202428759     
  -2.0000000000000000       -1.1464466094067263        1.0532462021154556     
  -3.0000000000000000       -1.0000000000000000        1.0488191727515912     
  -2.8535533905932735       -1.0000000000000000        1.0488324367539683     
  -2.5000000000000000       -1.0000000000000000        1.0492076448916297     
  -2.1464466094067260       -1.0000000000000000        1.0530539745743792     
  -2.0000000000000000       -1.0000000000000000        1.0579485634975401     
  -3.0000000000000000       -2.0000000000000000        1.1666666686102749     
  -2.8535533905932735       -2.0000000000000000        1.1666666764500131     
  -2.5000000000000000       -2.0000000000000000        1.1666668611176116     
  -2.1464466094067260       -2.0000000000000000        1.1666689297668726     
  -2.0000000000000000       -2.0000000000000000        1.1666713263944364     
  -3.0000000000000004       -1.8535533905932733        1.1666666666666665     
  -2.8535533905932726       -1.8535533905932733        1.1666667046555654     
  -2.5000000000000004       -1.8535533905932735        1.1666675480576516     
  -2.1464466094067260       -1.8535533905932733        1.1666761938617920     
  -2.0000000000000000       -1.8535533905932733        1.1666871956388687     
  -3.0000000000000000       -1.5000000000000000        1.1666668343720512     
  -2.8535533905932735       -1.5000000000000002        1.1666674585835952     
  -2.5000000000000000       -1.5000000000000000        1.1666850401525977     
  -2.1464466094067260       -1.5000000000000000        1.1668652710810299     
  -2.0000000000000000       -1.5000000000000000        1.1670946165171874     
  -3.0000000000000000       -1.1464466094067263        1.1666683873098198     
  -2.8535533905932735       -1.1464466094067263        1.1666743702745643     
  -2.5000000000000000       -1.1464466094067260        1.1668454002810300     
  -2.1464466094067260       -1.1464466094067263        1.1685986573742244     
  -2.0000000000000000       -1.1464466094067263        1.1708297210423504     
  -3.0000000000000000       -1.0000000000000000        1.1666700833186419     
  -2.8535533905932735       -1.0000000000000000        1.1666825461780721     
  -2.5000000000000000       -1.0000000000000000        1.1670350918233297     
  -2.1464466094067260       -1.0000000000000000        1.1706491040042246     
  -2.0000000000000000       -1.0000000000000000        1.1752480607884312     
  -3.0000000000000000       -2.0000000000000000        1.2845177986830929     
  -2.8535533905932735       -2.0000000000000000        1.2845178060188738     
  -2.5000000000000000       -2.0000000000000000        1.2845179788155894     
  -2.1464466094067260       -2.0000000000000000        1.2845199144870394     
  -2.0000000000000000       -2.0000000000000000        1.2845221570535486     
  -3.0000000000000004       -1.8535533905932733        1.2845177968644246     
  -2.8535533905932726       -1.8535533905932733        1.2845178324113045     
  -2.5000000000000004       -1.8535533905932735        1.2845186215974511     
  -2.1464466094067260       -1.8535533905932733        1.2845267116282519     
  -2.0000000000000000       -1.8535533905932733        1.2845370061843127     
  -3.0000000000000000       -1.5000000000000000        1.2845179537892988     
  -2.8535533905932735       -1.5000000000000002        1.2845185378750050     
  -2.5000000000000000       -1.5000000000000000        1.2845349892579470     
  -2.1464466094067260       -1.5000000000000000        1.2847036345034997     
  -2.0000000000000000       -1.5000000000000000        1.2849182370566443     
  -3.0000000000000000       -1.1464466094067263        1.2845194069004466     
  -2.8535533905932735       -1.1464466094067263        1.2845250052656509     
  -2.5000000000000000       -1.1464466094067260        1.2846850410469022     
  -2.1464466094067260       -1.1464466094067263        1.2863255945055729     
  -2.0000000000000000       -1.1464466094067263        1.2884132399692452     
  -3.0000000000000000       -1.0000000000000000        1.2845209938856925     
  -2.8535533905932735       -1.0000000000000000        1.2845326556021757     
  -2.5000000000000000       -1.0000000000000000        1.2848625387550299     
  -2.1464466094067260       -1.0000000000000000        1.2882442334340700     
  -2.0000000000000000       -1.0000000000000000        1.2925475580793224     
  -3.0000000000000000       -2.0000000000000000        1.3333333351002499     
  -2.8535533905932735       -2.0000000000000000        1.3333333422272846     
  -2.5000000000000000       -2.0000000000000000        1.3333335101069197     
  -2.1464466094067260       -2.0000000000000000        1.3333353906971568     
  -2.0000000000000000       -2.0000000000000000        1.3333375694494878     
  -3.0000000000000004       -1.8535533905932733        1.3333333333333333     
  -2.8535533905932726       -1.8535533905932733        1.3333333678686958     
  -2.5000000000000004       -1.8535533905932735        1.3333341345978651     
  -2.1464466094067260       -1.8535533905932733        1.3333419944198110     
  -2.0000000000000000       -1.8535533905932733        1.3333519960353353     
  -3.0000000000000000       -1.5000000000000000        1.3333334857927737     
  -2.8535533905932735       -1.5000000000000002        1.3333340532578140     
  -2.5000000000000000       -1.5000000000000000        1.3333500365023616     
  -2.1464466094067260       -1.5000000000000000        1.3335138828009363     
  -2.0000000000000000       -1.5000000000000000        1.3337223786519885     
  -3.0000000000000000       -1.1464466094067263        1.3333348975543815     
  -2.8535533905932735       -1.1464466094067263        1.3333403366132401     
  -2.5000000000000000       -1.1464466094067260        1.3334958184373000     
  -2.1464466094067260       -1.1464466094067263        1.3350896885220220     
  -2.0000000000000000       -1.1464466094067263        1.3371179282203185     
  -3.0000000000000000       -1.0000000000000000        1.3333364393805835     
  -2.8535533905932735       -1.0000000000000000        1.3333477692527929     
  -2.5000000000000000       -1.0000000000000000        1.3336682652939360     
  -2.1464466094067260       -1.0000000000000000        1.3369537309129316     
  -2.0000000000000000       -1.0000000000000000        1.3411346007167557     
 ZONE I=           5 ,J=           5 ,K=           5 , F=POINT
  -2.0000000000000000       -2.0000000000000000        1.0000050833393852     
  -1.8535533905932737       -2.0000000000000000        1.0000095477367592     
  -1.5000000000000000       -2.0000000000000000        1.0000268915852499     
  -1.1464466094067263       -2.0000000000000000        1.0000350020554385     
  -1.0000000000000000       -2.0000000000000000        1.0000313075958112     
  -2.0000000000000000       -1.8535533905932733        1.0000223952424023     
  -1.8535533905932733       -1.8535533905932733        1.0000423988652021     
  -1.5000000000000000       -1.8535533905932735        1.0001166115812083     
  -1.1464466094067263       -1.8535533905932733        1.0001520253249603     
  -1.0000000000000000       -1.8535533905932733        1.0001370513620398     
  -2.0000000000000000       -1.5000000000000000        1.0004668543823863     
  -1.8535533905932733       -1.5000000000000002        1.0008838634966266     
  -1.5000000000000000       -1.5000000000000000        1.0024314564319807     
  -1.1464466094067263       -1.5000000000000000        1.0031785895804353     
  -1.0000000000000000       -1.5000000000000000        1.0028813082135108     
  -2.0000000000000000       -1.1464466094067263        1.0045415138643823     
  -1.8535533905932737       -1.1464466094067263        1.0085983130017346     
  -1.5000000000000000       -1.1464466094067260        1.0236619963836664     
  -1.1464466094067263       -1.1464466094067263        1.0310746691068107     
  -1.0000000000000000       -1.1464466094067263        1.0284245486344230     
  -2.0000000000000000       -1.0000000000000000        1.0093615208601068     
  -1.8535533905932737       -1.0000000000000000        1.0177241061385125     
  -1.5000000000000000       -1.0000000000000000        1.0487861854379432     
  -1.1464466094067263       -1.0000000000000000        1.0642455679297647     
  -1.0000000000000000       -1.0000000000000000        1.0590828762363302     
  -2.0000000000000000       -2.0000000000000000        1.0488204957353244     
  -1.8535533905932737       -2.0000000000000000        1.0488248511667220     
  -1.5000000000000000       -2.0000000000000000        1.0488417716905785     
  -1.1464466094067263       -2.0000000000000000        1.0488496842022903     
  -1.0000000000000000       -2.0000000000000000        1.0488460799161774     
  -2.0000000000000000       -1.8535533905932733        1.0488373850934249     
  -1.8535533905932733       -1.8535533905932733        1.0488569004724355     
  -1.5000000000000000       -1.8535533905932735        1.0489293018216694     
  -1.1464466094067263       -1.8535533905932733        1.0489638511949717     
  -1.0000000000000000       -1.8535533905932733        1.0489492427130676     
  -2.0000000000000000       -1.5000000000000000        1.0492709959777304     
  -1.8535533905932733       -1.5000000000000002        1.0496778268301588     
  -1.5000000000000000       -1.5000000000000000        1.0511876464758254     
  -1.1464466094067263       -1.5000000000000000        1.0519165437715523     
  -1.0000000000000000       -1.5000000000000000        1.0516265183793321     
  -2.0000000000000000       -1.1464466094067263        1.0532462021154556     
  -1.8535533905932737       -1.1464466094067263        1.0572039838396898     
  -1.5000000000000000       -1.1464466094067260        1.0718999963288780     
  -1.1464466094067263       -1.1464466094067263        1.0791317422541979     
  -1.0000000000000000       -1.1464466094067263        1.0765463053080937     
  -2.0000000000000000       -1.0000000000000000        1.0579485634975401     
  -1.8535533905932737       -1.0000000000000000        1.0661070367326295     
  -1.5000000000000000       -1.0000000000000000        1.0964109599996394     
  -1.1464466094067263       -1.0000000000000000        1.1114930134665528     
  -1.0000000000000000       -1.0000000000000000        1.1064563315554377     
  -2.0000000000000000       -2.0000000000000000        1.1666713263944364     
  -1.8535533905932737       -2.0000000000000000        1.1666754187586958     
  -1.5000000000000000       -2.0000000000000000        1.1666913172864790     
  -1.1464466094067263       -2.0000000000000000        1.1666987518841518     
  -1.0000000000000000       -2.0000000000000000        1.1666953652961602     
  -2.0000000000000000       -1.8535533905932733        1.1666871956388687     
  -1.8535533905932733       -1.8535533905932733        1.1667055322931019     
  -1.5000000000000000       -1.8535533905932735        1.1667735606161076     
  -1.1464466094067263       -1.8535533905932733        1.1668060232145470     
  -1.0000000000000000       -1.8535533905932733        1.1667922970818698     
  -2.0000000000000000       -1.5000000000000000        1.1670946165171874     
  -1.8535533905932733       -1.5000000000000002        1.1674768748719078     
  -1.5000000000000000       -1.5000000000000000        1.1688955017293157     
  -1.1464466094067263       -1.5000000000000000        1.1695803737820656     
  -1.0000000000000000       -1.5000000000000000        1.1693078658623850     
  -2.0000000000000000       -1.1464466094067263        1.1708297210423504     
  -1.8535533905932737       -1.1464466094067263        1.1745484535849233     
  -1.5000000000000000       -1.1464466094067260        1.1883568300183609     
  -1.1464466094067263       -1.1464466094067263        1.1951517800145763     
  -1.0000000000000000       -1.1464466094067263        1.1927225029148878     
  -2.0000000000000000       -1.0000000000000000        1.1752480607884312     
  -1.8535533905932737       -1.0000000000000000        1.1829137639603031     
  -1.5000000000000000       -1.0000000000000000        1.2113873366514478     
  -1.1464466094067263       -1.0000000000000000        1.2255584372689510     
  -1.0000000000000000       -1.0000000000000000        1.2208259698833026     
  -2.0000000000000000       -2.0000000000000000        1.2845221570535486     
  -1.8535533905932737       -2.0000000000000000        1.2845259863506699     
  -1.5000000000000000       -2.0000000000000000        1.2845408628823798     
  -1.1464466094067263       -2.0000000000000000        1.2845478195660136     
  -1.0000000000000000       -2.0000000000000000        1.2845446506761431     
  -2.0000000000000000       -1.8535533905932733        1.2845370061843127     
  -1.8535533905932733       -1.8535533905932733        1.2845541641137683     
  -1.5000000000000000       -1.8535533905932735        1.2846178194105458     
  -1.1464466094067263       -1.8535533905932733        1.2846481952341222     
  -1.0000000000000000       -1.8535533905932733        1.2846353514506719     
  -2.0000000000000000       -1.5000000000000000        1.2849182370566443     
  -1.8535533905932733       -1.5000000000000002        1.2852759229136566     
  -1.5000000000000000       -1.5000000000000000        1.2866033569828059     
  -1.1464466094067263       -1.5000000000000000        1.2872442037925791     
  -1.0000000000000000       -1.5000000000000000        1.2869892133454377     
  -2.0000000000000000       -1.1464466094067263        1.2884132399692452     
  -1.8535533905932737       -1.1464466094067263        1.2918929233301570     
  -1.5000000000000000       -1.1464466094067260        1.3048136637078436     
  -1.1464466094067263       -1.1464466094067263        1.3111718177749547     
  -1.0000000000000000       -1.1464466094067263        1.3088987005216817     
  -2.0000000000000000       -1.0000000000000000        1.2925475580793224     
  -1.8535533905932737       -1.0000000000000000        1.2997204911879767     
  -1.5000000000000000       -1.0000000000000000        1.3263637133032564     
  -1.1464466094067263       -1.0000000000000000        1.3396238610713491     
  -1.0000000000000000       -1.0000000000000000        1.3351956082111678     
  -2.0000000000000000       -2.0000000000000000        1.3333375694494878     
  -1.8535533905932737       -2.0000000000000000        1.3333412897806327     
  -1.5000000000000000       -2.0000000000000000        1.3333557429877083     
  -1.1464466094067263       -2.0000000000000000        1.3333625017128654     
  -1.0000000000000000       -2.0000000000000000        1.3333594229965093     
  -2.0000000000000000       -1.8535533905932733        1.3333519960353353     
  -1.8535533905932733       -1.8535533905932733        1.3333686657210018     
  -1.5000000000000000       -1.8535533905932735        1.3334305096510071     
  -1.1464466094067263       -1.8535533905932733        1.3334600211041336     
  -1.0000000000000000       -1.8535533905932733        1.3334475428016999     
  -2.0000000000000000       -1.5000000000000000        1.3337223786519885     
  -1.8535533905932733       -1.5000000000000002        1.3340698862471889     
  -1.5000000000000000       -1.5000000000000000        1.3353595470266506     
  -1.1464466094067263       -1.5000000000000000        1.3359821579836961     
  -1.0000000000000000       -1.5000000000000000        1.3357344235112589     
  -2.0000000000000000       -1.1464466094067263        1.3371179282203185     
  -1.8535533905932737       -1.1464466094067263        1.3404985941681122     
  -1.5000000000000000       -1.1464466094067260        1.3530516636530554     
  -1.1464466094067263       -1.1464466094067263        1.3592288909223422     
  -1.0000000000000000       -1.1464466094067263        1.3570204571953526     
  -2.0000000000000000       -1.0000000000000000        1.3411346007167557     
  -1.8535533905932737       -1.0000000000000000        1.3481034217820937     
  -1.5000000000000000       -1.0000000000000000        1.3739884878649526     
  -1.1464466094067263       -1.0000000000000000        1.3868713066081373     
  -1.0000000000000000       -1.0000000000000000        1.3825690635302752     
 ZONE I=           5 ,J=           5 ,K=           5 , F=POINT
  -1.0000000000000000       -2.0000000000000000        1.0000313075958112     
 -0.85355339059327373       -2.0000000000000000        1.0000253451939884     
 -0.50000000000000000       -2.0000000000000000        1.0000108537292149     
 -0.14644660940672627       -2.0000000000000000        1.0000070506443122     
   0.0000000000000000       -2.0000000000000000        1.0000066136596002     
  -1.0000000000000000       -1.8535533905932733        1.0001370513620398     
 -0.85355339059327373       -1.8535533905932733        1.0001102371354691     
 -0.50000000000000000       -1.8535533905932735        1.0000506563019473     
 -0.14644660940672621       -1.8535533905932733        1.0000363004277641     
   0.0000000000000000       -1.8535533905932733        1.0000349270080615     
  -1.0000000000000000       -1.5000000000000000        1.0028813082135108     
 -0.85355339059327351       -1.5000000000000002        1.0023529988429327     
 -0.50000000000000000       -1.5000000000000000        1.0012871062516020     
 -0.14644660940672627       -1.5000000000000000        1.0012153260932841     
   0.0000000000000000       -1.5000000000000000        1.0012172530502343     
  -1.0000000000000000       -1.1464466094067263        1.0284245486344230     
 -0.85355339059327373       -1.1464466094067263        1.0237839035492484     
 -0.50000000000000000       -1.1464466094067260        1.0162796049288738     
 -0.14644660940672627       -1.1464466094067263        1.0192810946900213     
   0.0000000000000000       -1.1464466094067263        1.0197970463226687     
  -1.0000000000000000       -1.0000000000000000        1.0590828762363302     
 -0.85355339059327373       -1.0000000000000000        1.0501358571208166     
 -0.50000000000000000       -1.0000000000000000        1.0382218318127814     
 -0.14644660940672627       -1.0000000000000000        1.0490002963749196     
   0.0000000000000000       -1.0000000000000000        1.0506816575518532     
  -1.0000000000000000       -2.0000000000000000        1.0488460799161774     
 -0.85355339059327373       -2.0000000000000000        1.0488402630432765     
 -0.50000000000000000       -2.0000000000000000        1.0488261252828166     
 -0.14644660940672627       -2.0000000000000000        1.0488224150227285     
   0.0000000000000000       -2.0000000000000000        1.0488219887038381     
  -1.0000000000000000       -1.8535533905932733        1.0489492427130676     
 -0.85355339059327373       -1.8535533905932733        1.0489230829619245     
 -0.50000000000000000       -1.8535533905932735        1.0488649563635786     
 -0.14644660940672621       -1.8535533905932733        1.0488509508842452     
   0.0000000000000000       -1.8535533905932733        1.0488496109866523     
  -1.0000000000000000       -1.5000000000000000        1.0516265183793321     
 -0.85355339059327351       -1.5000000000000002        1.0511111038614271     
 -0.50000000000000000       -1.5000000000000000        1.0500712273294286     
 -0.14644660940672627       -1.5000000000000000        1.0500011991645788     
   0.0000000000000000       -1.5000000000000000        1.0500030790888102     
  -1.0000000000000000       -1.1464466094067263        1.0765463053080937     
 -0.85355339059327373       -1.1464466094067263        1.0720189280126164     
 -0.50000000000000000       -1.1464466094067260        1.0646977925737302     
 -0.14644660940672627       -1.1464466094067263        1.0676260226684293     
   0.0000000000000000       -1.1464466094067263        1.0681293810732069     
  -1.0000000000000000       -1.0000000000000000        1.1064563315554377     
 -0.85355339059327373       -1.0000000000000000        1.0977276892088847     
 -0.50000000000000000       -1.0000000000000000        1.0861044586693074     
 -0.14644660940672627       -1.0000000000000000        1.0966198449664897     
   0.0000000000000000       -1.0000000000000000        1.0982601678694983     
  -1.0000000000000000       -2.0000000000000000        1.1666953652961602     
 -0.85355339059327373       -2.0000000000000000        1.1666898997611561     
 -0.50000000000000000       -2.0000000000000000        1.1666766159184470     
 -0.14644660940672627       -2.0000000000000000        1.1666731297572861     
   0.0000000000000000       -2.0000000000000000        1.1666727291879668     
  -1.0000000000000000       -1.8535533905932733        1.1667922970818698     
 -0.85355339059327373       -1.8535533905932733        1.1667677173741799     
 -0.50000000000000000       -1.8535533905932735        1.1667131016101184     
 -0.14644660940672621       -1.8535533905932733        1.1666999420587838     
   0.0000000000000000       -1.8535533905932733        1.1666986830907231     
  -1.0000000000000000       -1.5000000000000000        1.1693078658623850     
 -0.85355339059327351       -1.5000000000000002        1.1688235822726882     
 -0.50000000000000000       -1.5000000000000000        1.1678465140639684     
 -0.14644660940672627       -1.5000000000000000        1.1677807155855104     
   0.0000000000000000       -1.5000000000000000        1.1677824819627147     
  -1.0000000000000000       -1.1464466094067263        1.1927225029148878     
 -0.85355339059327373       -1.1464466094067263        1.1884685782534776     
 -0.50000000000000000       -1.1464466094067260        1.1815896378514676     
 -0.14644660940672627       -1.1464466094067263        1.1843410034658528     
   0.0000000000000000       -1.1464466094067263        1.1848139591291129     
  -1.0000000000000000       -1.0000000000000000        1.2208259698833026     
 -0.85355339059327373       -1.0000000000000000        1.2126245356940819     
 -0.50000000000000000       -1.0000000000000000        1.2017033458283830     
 -0.14644660940672627       -1.0000000000000000        1.2115836050103430     
   0.0000000000000000       -1.0000000000000000        1.2131248527558653     
  -1.0000000000000000       -2.0000000000000000        1.2845446506761431     
 -0.85355339059327373       -2.0000000000000000        1.2845395364790357     
 -0.50000000000000000       -2.0000000000000000        1.2845271065540775     
 -0.14644660940672627       -2.0000000000000000        1.2845238444918436     
   0.0000000000000000       -2.0000000000000000        1.2845234696720955     
  -1.0000000000000000       -1.8535533905932733        1.2846353514506719     
 -0.85355339059327373       -1.8535533905932733        1.2846123517864356     
 -0.50000000000000000       -1.8535533905932735        1.2845612468566583     
 -0.14644660940672621       -1.8535533905932733        1.2845489332333224     
   0.0000000000000000       -1.8535533905932733        1.2845477551947937     
  -1.0000000000000000       -1.5000000000000000        1.2869892133454377     
 -0.85355339059327351       -1.5000000000000002        1.2865360606839493     
 -0.50000000000000000       -1.5000000000000000        1.2856218007985085     
 -0.14644660940672627       -1.5000000000000000        1.2855602320064421     
   0.0000000000000000       -1.5000000000000000        1.2855618848366193     
  -1.0000000000000000       -1.1464466094067263        1.3088987005216817     
 -0.85355339059327373       -1.1464466094067263        1.3049182284943388     
 -0.50000000000000000       -1.1464466094067260        1.2984814831292053     
 -0.14644660940672627       -1.1464466094067263        1.3010559842632763     
   0.0000000000000000       -1.1464466094067263        1.3014985371850190     
  -1.0000000000000000       -1.0000000000000000        1.3351956082111678     
 -0.85355339059327373       -1.0000000000000000        1.3275213821792791     
 -0.50000000000000000       -1.0000000000000000        1.3173022329874584     
 -0.14644660940672627       -1.0000000000000000        1.3265473650541963     
   0.0000000000000000       -1.0000000000000000        1.3279895376422326     
  -1.0000000000000000       -2.0000000000000000        1.3333594229965093     
 -0.85355339059327373       -2.0000000000000000        1.3333544543283238     
 -0.50000000000000000       -2.0000000000000000        1.3333423781076792     
 -0.14644660940672627       -2.0000000000000000        1.3333392088702603     
   0.0000000000000000       -2.0000000000000000        1.3333388447163335     
  -1.0000000000000000       -1.8535533905932733        1.3334475428016999     
 -0.85355339059327373       -1.8535533905932733        1.3334251976128910     
 -0.50000000000000000       -1.8535533905932735        1.3333755469182895     
 -0.14644660940672621       -1.8535533905932733        1.3333635836898035     
   0.0000000000000000       -1.8535533905932733        1.3333624391733845     
  -1.0000000000000000       -1.5000000000000000        1.3357344235112589     
 -0.85355339059327351       -1.5000000000000002        1.3352941657024440     
 -0.50000000000000000       -1.5000000000000000        1.3344059218763351     
 -0.14644660940672627       -1.5000000000000000        1.3343461050777368     
   0.0000000000000000       -1.5000000000000000        1.3343477108751953     
  -1.0000000000000000       -1.1464466094067263        1.3570204571953526     
 -0.85355339059327373       -1.1464466094067263        1.3531532529577071     
 -0.50000000000000000       -1.1464466094067260        1.3468996707740615     
 -0.14644660940672627       -1.1464466094067263        1.3494009122416843     
   0.0000000000000000       -1.1464466094067263        1.3498308719355572     
  -1.0000000000000000       -1.0000000000000000        1.3825690635302752     
 -0.85355339059327373       -1.0000000000000000        1.3751132142673472     
 -0.50000000000000000       -1.0000000000000000        1.3651848598439844     
 -0.14644660940672627       -1.0000000000000000        1.3741669136457664     
   0.0000000000000000       -1.0000000000000000        1.3755680479598777     
 ZONE I=           5 ,J=           5 ,K=           5 , F=POINT