 VARIABLES = "X", "Y", "Z"
 ZONE F=FEPOINT, ET=QUADRILATERAL, N=        2746 E=        2569
  -2.4117235769641847       -3.0378790764332075        0.0000000000000000     
  -2.3415780101142842       -3.0417665458281054        0.0000000000000000     
  -2.2463972486879271       -3.0492966254959359        0.0000000000000000     
  -2.1461107991854464       -3.0557599226723089        0.0000000000000000     
  -2.0445095825494488       -3.0597892383079435        0.0000000000000000     
  -1.9425443845636026       -3.0613779517120157        0.0000000000000000     
  -1.8406650658318835       -3.0607256681194839        0.0000000000000000     
  -1.7391700826621750       -3.0580618059207634        0.0000000000000000     
  -1.6382749141208128       -3.0536178422537823        0.0000000000000000     
  -1.5382698251004960       -3.0476379647687919        0.0000000000000000     
  -1.4402607444710751       -3.0406384887679510        0.0000000000000000     
  -1.3483270455930390       -3.0346573029774402        0.0000000000000000     
  -1.2826644512425445       -3.0342678990514149        0.0000000000000000     
  -2.6149395809782159       -2.9414202659203736        0.0000000000000000     
  -2.5552152275511699       -2.9501217864133156        0.0000000000000000     
  -2.4579101441529132       -2.9741853460151031        0.0000000000000000     
  -2.3565556283250162       -2.9599305359767181        0.0000000000000000     
  -2.2582609772706541       -2.9593379018175607        0.0000000000000000     
  -2.1583489537212692       -2.9605765091503282        0.0000000000000000     
  -2.0580178136683349       -2.9615280330128799        0.0000000000000000     
  -1.9575770841823790       -2.9619188813988075        0.0000000000000000     
  -1.8571477709709521       -2.9617775599529423        0.0000000000000000     
  -1.7568048268995291       -2.9611574658361204        0.0000000000000000     
  -1.6566091030332741       -2.9601138465093113        0.0000000000000000     
  -1.5566636707841299       -2.9587293357320372        0.0000000000000000     
  -1.4571717768607226       -2.9574160134740572        0.0000000000000000     
  -1.3578346871276521       -2.9585200807930661        0.0000000000000000     
  -1.2435827921847109       -2.9745354713539540        0.0000000000000000     
  -1.1350181775091841       -2.9520928742049564        0.0000000000000000     
  -1.0441315178085633       -2.9405368639710305        0.0000000000000000     
 -0.97897324683117104       -2.9372949718496337        0.0000000000000000     
  -2.7255317597480295       -2.8519699051829184        0.0000000000000000     
  -2.6529001996935557       -2.8749622713571212        0.0000000000000000     
  -2.5591622879620513       -2.8633700202230825        0.0000000000000000     
  -2.4624134240736670       -2.8643426822232767        0.0000000000000000     
  -2.3622616536509753       -2.8635735351655125        0.0000000000000000     
  -2.2618592876511538       -2.8621794709762165        0.0000000000000000     
  -2.1617583958905855       -2.8620554790516226        0.0000000000000000     
  -2.0617075733366592       -2.8621538105546978        0.0000000000000000     
  -1.9616527149515002       -2.8622054795559086        0.0000000000000000     
  -1.8615986361327241       -2.8621885316210314        0.0000000000000000     
  -1.7615554306427916       -2.8621089122306249        0.0000000000000000     
  -1.6615320955162238       -2.8619749580290281        0.0000000000000000     
  -1.5615253376009166       -2.8618242256646709        0.0000000000000000     
  -1.4613520976392520       -2.8619515577961145        0.0000000000000000     
  -1.3598471365617297       -2.8634683307890452        0.0000000000000000     
  -1.2570519148585428       -2.8643200449867585        0.0000000000000000     
  -1.1557832398221344       -2.8616339486105953        0.0000000000000000     
  -1.0563371840828399       -2.8603161687622376        0.0000000000000000     
 -0.94107129197792327       -2.8749019541645331        0.0000000000000000     
 -0.83367367480182941       -2.8495480352337772        0.0000000000000000     
 -0.74421038846103615       -2.8352173878278899        0.0000000000000000     
 -0.68002697233464293       -2.8293600280811484        0.0000000000000000     
  -2.8294714668137928       -2.7516164260922400        0.0000000000000000     
  -2.7586550478791958       -2.7794825308680888        0.0000000000000000     
  -2.6604845139155957       -2.7668378023815134        0.0000000000000000     
  -2.5624515816944600       -2.7644214528769733        0.0000000000000000     
  -2.4626417779641683       -2.7630406874773721        0.0000000000000000     
  -2.3625102148165364       -2.7626670915656328        0.0000000000000000     
  -2.2623252421093976       -2.7623863022026023        0.0000000000000000     
  -2.1622427276494465       -2.7622680976084006        0.0000000000000000     
  -2.0622273291361717       -2.7622582089151462        0.0000000000000000     
  -1.9622229151770401       -2.7622609345037041        0.0000000000000000     
  -1.8622192375872182       -2.7622598261463254        0.0000000000000000     
  -1.7622163117975491       -2.7622543236731230        0.0000000000000000     
  -1.6622139804440481       -2.7622460195208047        0.0000000000000000     
  -1.5621978818092745       -2.7622527484637573        0.0000000000000000     
  -1.4620708393892836       -2.7623734330261915        0.0000000000000000     
  -1.3617220582481224       -2.7626466448253870        0.0000000000000000     
  -1.2613170792849262       -2.7627671026369085        0.0000000000000000     
  -1.1609864053495713       -2.7627069333154717        0.0000000000000000     
  -1.0594586442916138       -2.7638106947530279        0.0000000000000000     
 -0.95662223364348731       -2.7642414684845837        0.0000000000000000     
 -0.85550530762895016       -2.7609575584404853        0.0000000000000000     
 -0.75657445664207090       -2.7582907608429252        0.0000000000000000     
 -0.64339930844178816       -2.7672062899056251        0.0000000000000000     
 -0.54165628364845531       -2.7411993712004019        0.0000000000000000     
 -0.47720348874101198       -2.7323947925910965        0.0000000000000000     
  -2.9224170888883569       -2.6449031401992085        0.0000000000000000     
  -2.8573788462576419       -2.6766003152729905        0.0000000000000000     
  -2.7611965948413077       -2.6670384961145905        0.0000000000000000     
  -2.6629476716961880       -2.6649095365251747        0.0000000000000000     
  -2.5626289397166171       -2.6630533774473317        0.0000000000000000     
  -2.4624151988063989       -2.6625000288472362        0.0000000000000000     
  -2.3623225605066156       -2.6623377799329582        0.0000000000000000     
  -2.2622858022632006       -2.6622906823701373        0.0000000000000000     
  -2.1622695624058341       -2.6622712958248322        0.0000000000000000     
  -2.0622652265627273       -2.6622664101071938        0.0000000000000000     
  -1.9622646764847871       -2.6622660579717681        0.0000000000000000     
  -1.8622645313322133       -2.6622660043879289        0.0000000000000000     
  -1.7622644129214535       -2.6622658196109117        0.0000000000000000     
  -1.6622638880193887       -2.6622659766193379        0.0000000000000000     
  -1.5622587194632851       -2.6622707976868711        0.0000000000000000     
  -1.4622383094717661       -2.6622895848435979        0.0000000000000000     
  -1.3621996089400903       -2.6623200809148955        0.0000000000000000     
  -1.2621506396686792       -2.6623494746158420        0.0000000000000000     
  -1.1620149589550413       -2.6624527060689798        0.0000000000000000     
  -1.0616696639970269       -2.6626813333861761        0.0000000000000000     
 -0.96126908177028303       -2.6627444863223078        0.0000000000000000     
 -0.86097153396549753       -2.6625599853803239        0.0000000000000000     
 -0.75961637896583212       -2.6631477159559416        0.0000000000000000     
 -0.65718500232908639       -2.6629167682950623        0.0000000000000000     
 -0.55601450121115237       -2.6608993935466412        0.0000000000000000     
 -0.44164572690316917       -2.6685895633328345        0.0000000000000000     
 -0.34067502204092409       -2.6408455919656011        0.0000000000000000     
 -0.27675438715281686       -2.6308264847795657        0.0000000000000000     
  -2.9352544711570223       -2.5816782406034435        0.0000000000000000     
  -2.8581972673958580       -2.5675263039899447        0.0000000000000000     
  -2.7627016796196027       -2.5648222989453044        0.0000000000000000     
  -2.6626729699553238       -2.5630743608856670        0.0000000000000000     
  -2.5624187344889471       -2.5624986853846163        0.0000000000000000     
  -2.4623033242140586       -2.5623150732128930        0.0000000000000000     
  -2.3622749155072880       -2.5622765992654926        0.0000000000000000     
  -2.2622684891707756       -2.5622687431743776        0.0000000000000000     
  -2.1622668379352752       -2.5622669102370517        0.0000000000000000     
  -2.0622663477664060       -2.5622663778941046        0.0000000000000000     
  -1.9622662568013025       -2.5622662829314451        0.0000000000000000     
  -1.8622662486807500       -2.5622662763377106        0.0000000000000000     
  -1.7622662407424994       -2.5622662785548682        0.0000000000000000     
  -1.6622661421588065       -2.5622663704874253        0.0000000000000000     
  -1.5622656033887010       -2.5622668901323369        0.0000000000000000     
  -1.4622641236602758       -2.5622682619823989        0.0000000000000000     
  -1.3622614861462339       -2.5622705390921734        0.0000000000000000     
  -1.2622547039751131       -2.5622764939562002        0.0000000000000000     
  -1.1622340167474003       -2.5622942764511172        0.0000000000000000     
  -1.0621957977428875       -2.5623219543236875        0.0000000000000000     
 -0.96214795089167182       -2.5623458663131649        0.0000000000000000     
 -0.86201858579744273       -2.5624261051044752        0.0000000000000000     
 -0.76167863549719461       -2.5626112036545661        0.0000000000000000     
 -0.66109337709377203       -2.5628296044907160        0.0000000000000000     
 -0.55939216946703252       -2.5635993458822135        0.0000000000000000     
 -0.45684699187298344       -2.5631620092016054        0.0000000000000000     
 -0.35579834443405794       -2.5606082829305183        0.0000000000000000     
 -0.24183642189916271       -2.5664153819664235        0.0000000000000000     
 -0.14205128959470187       -2.5371779588877277        0.0000000000000000     
  -7.9368795640012674E-002  -2.5260178717974000        0.0000000000000000     
  -3.0264443693984950       -2.4431108053495811        0.0000000000000000     
  -2.9641646048729049       -2.4803372565274331        0.0000000000000000     
  -2.8620233969166922       -2.4670897741370559        0.0000000000000000     
  -2.7626227130692858       -2.4633688446612307        0.0000000000000000     
  -2.6624264628363128       -2.4625199121727830        0.0000000000000000     
  -2.5623046209125802       -2.4623156547802836        0.0000000000000000     
  -2.4622736879764044       -2.4622751507086029        0.0000000000000000     
  -2.3622674104775694       -2.4622675573132082        0.0000000000000000     
  -2.2622664641336931       -2.4622664798046530        0.0000000000000000     
  -2.1622663171215377       -2.4622663190658485        0.0000000000000000     
  -2.0622662890980243       -2.4622662896337122        0.0000000000000000     
  -1.9622662827750099       -2.4622662830472524        0.0000000000000000     
  -1.8622662818700904       -2.4622662821863086        0.0000000000000000     
  -1.7622662809280034       -2.4622662830121640        0.0000000000000000     
  -1.6622662743289880       -2.4622662894947260        0.0000000000000000     
  -1.5622662499688824       -2.4622663131859825        0.0000000000000000     
  -1.4622661921203268       -2.4622663681948027        0.0000000000000000     
  -1.3622660280833134       -2.4622665237686805        0.0000000000000000     
  -1.2622654435465916       -2.4622670745885009        0.0000000000000000     
  -1.1622639580639362       -2.4622684123523180        0.0000000000000000     
  -1.0622613475955880       -2.4622705718543973        0.0000000000000000     
 -0.96225469243543515       -2.4622760248163171        0.0000000000000000     
 -0.86223371578434560       -2.4622927767899885        0.0000000000000000     
 -0.76218063770804345       -2.4623323410049642        0.0000000000000000     
 -0.66201749056598880       -2.4624502047699597        0.0000000000000000     
 -0.56164459393739175       -2.4626545668130149        0.0000000000000000     
 -0.46105281143979093       -2.4628398576969124        0.0000000000000000     
 -0.35938618357193231       -2.4634346841873849        0.0000000000000000     
 -0.25699891007403264       -2.4626203325390481        0.0000000000000000     
 -0.15664006620038762       -2.4594762556588563        0.0000000000000000     
  -4.6871796923719906E-002  -2.4639339478688727        0.0000000000000000     
   3.0006187918647047E-002  -2.4421468636306995        0.0000000000000000     
  -3.0310103458693143       -2.3773751696559380        0.0000000000000000     
  -2.9565278503276371       -2.3669074324714270        0.0000000000000000     
  -2.8626229486699275       -2.3646668495809831        0.0000000000000000     
  -2.7625293794165731       -2.3628150078985066        0.0000000000000000     
  -2.6623239746691234       -2.3623482996662646        0.0000000000000000     
  -2.5622751936130328       -2.3622769739993812        0.0000000000000000     
  -2.4622674283378188       -2.3622675632658954        0.0000000000000000     
  -2.3622664230957673       -2.3622664357342789        0.0000000000000000     
  -2.2622662964372648       -2.3622662972914306        0.0000000000000000     
  -2.1622662838458515       -2.3622662839140651        0.0000000000000000     
  -2.0622662824248650       -2.3622662824314733        0.0000000000000000     
  -1.9622662822181167       -2.3622662822201268        0.0000000000000000     
  -1.8622662821766962       -2.3622662821858951        0.0000000000000000     
  -1.7622662821345829       -2.3622662822198279        0.0000000000000000     
  -1.6622662819543947       -2.3622662823979743        0.0000000000000000     
  -1.5622662814112893       -2.3622662829315066        0.0000000000000000     
  -1.4622662795966768       -2.3622662847104081        0.0000000000000000     
  -1.3622662719318444       -2.3622662922001219        0.0000000000000000     
  -1.2622662468570325       -2.3622663163326068        0.0000000000000000     
  -1.1622661889695272       -2.3622663705763038        0.0000000000000000     
  -1.0622660263055748       -2.3622665208779168        0.0000000000000000     
 -0.96226543400128417       -2.3622670610794909        0.0000000000000000     
 -0.86226350801344609       -2.3622687774846245        0.0000000000000000     
 -0.76225614351460047       -2.3622752301927323        0.0000000000000000     
 -0.66223310381437062       -2.3622940009180287        0.0000000000000000     
 -0.56217822520292893       -2.3623342317244620        0.0000000000000000     
 -0.46201551841288446       -2.3624454761593259        0.0000000000000000     
 -0.36165062830715833       -2.3626244331524688        0.0000000000000000     
 -0.26109735273003359       -2.3627556504863336        0.0000000000000000     
 -0.15953269262620301       -2.3633881117117537        0.0000000000000000     
  -5.6346498420497500E-002  -2.3644092438896682        0.0000000000000000     
   6.2637250050597323E-002  -2.3732497927246343        0.0000000000000000     
  0.16217562720242512       -2.3414789542197614        0.0000000000000000     
  0.22428016412484761       -2.3290574992198603        0.0000000000000000     
  -3.0404126627262857       -2.2855274376625743        0.0000000000000000     
  -2.9571858700100684       -2.2676392584028728        0.0000000000000000     
  -2.8618388875536986       -2.2632113397442448        0.0000000000000000     
  -2.7623421946981042       -2.2624629005739831        0.0000000000000000     
  -2.6622870423169318       -2.2622949180781076        0.0000000000000000     
  -2.5622685390582176       -2.2622688984964330        0.0000000000000000     
  -2.4622664672978400       -2.2622664828201273        0.0000000000000000     
  -2.3622662965507737       -2.2622662973141301        0.0000000000000000     
  -2.2622662833918876       -2.2622662834443545        0.0000000000000000     
  -2.1622662822593730       -2.2622662822616184        0.0000000000000000     
  -2.0622662821849000       -2.2622662821850339        0.0000000000000000     
  -1.9622662821787624       -2.2622662821787878        0.0000000000000000     
  -1.8622662821779992       -2.2622662821782198        0.0000000000000000     
  -1.7622662821773147       -2.2622662821787016        0.0000000000000000     
  -1.6622662821751539       -2.2622662821808333        0.0000000000000000     
  -1.5622662821663205       -2.2622662821896067        0.0000000000000000     
  -1.4622662821203443       -2.2622662822351973        0.0000000000000000     
  -1.3622662819317306       -2.2622662824211801        0.0000000000000000     
  -1.2622662813831260       -2.2622662829572415        0.0000000000000000     
  -1.1622662795731074       -2.2622662847131085        0.0000000000000000     
  -1.0622662718467459       -2.2622662921508754        0.0000000000000000     
 -0.96226624107137548       -2.2622663214796801        0.0000000000000000     
 -0.86226609117719122       -2.2622664631644009        0.0000000000000000     
 -0.76226546867557332       -2.2622670363664832        0.0000000000000000     
 -0.66226347741685765       -2.2622688060461944        0.0000000000000000     
 -0.56225607150674495       -2.2622751807542145        0.0000000000000000     
 -0.46223320013820507       -2.2622932689738540        0.0000000000000000     
 -0.36217902575783734       -2.2623317161516985        0.0000000000000000     
 -0.26200175126514935       -2.2624583795898188        0.0000000000000000     
 -0.16138694700387921       -2.2628871116696905        0.0000000000000000     
  -5.9152923633366591E-002  -2.2641613747288507        0.0000000000000000     
   4.3913931798819340E-002  -2.2638524695202373        0.0000000000000000     
  0.14460382917152517       -2.2606307813577815        0.0000000000000000     
  0.25559424350223353       -2.2651108855843098        0.0000000000000000     
  0.33206939410799374       -2.2418416939510317        0.0000000000000000     
  -3.0492182818156421       -2.1873311802683384        0.0000000000000000     
  -2.9590285840943409       -2.1680960688413387        0.0000000000000000     
  -2.8618507290396700       -2.1630345628976935        0.0000000000000000     
  -2.7622518935451232       -2.1623363903566739        0.0000000000000000     
  -2.6622702943509693       -2.1622738936020283        0.0000000000000000     
  -2.5622668651739144       -2.1622669738754818        0.0000000000000000     
  -2.4622663176750264       -2.1622663201499401        0.0000000000000000     
  -2.3622662838619122       -2.1622662839242452        0.0000000000000000     
  -2.2622662822596897       -2.1622662822616445        0.0000000000000000     
  -2.1622662821829479       -2.1622662821830505        0.0000000000000000     
  -2.0622662821782094       -2.1622662821782117        0.0000000000000000     
  -1.9622662821780141       -2.1622662821780145        0.0000000000000000     
  -1.8622662821780016       -2.1622662821780034        0.0000000000000000     
  -1.7622662821779975       -2.1622662821780056        0.0000000000000000     
  -1.6622662821779797       -2.1622662821780239        0.0000000000000000     
  -1.5622662821778595       -2.1622662821781433        0.0000000000000000     
  -1.4622662821772470       -2.1622662821787531        0.0000000000000000     
  -1.3622662821750642       -2.1622662821809184        0.0000000000000000     
  -1.2622662821662256       -2.1622662821896603        0.0000000000000000     
  -1.1622662821200882       -2.1622662822351044        0.0000000000000000     
  -1.0622662818974076       -2.1622662824534440        0.0000000000000000     
 -0.96226628049108487       -2.1622662838262849        0.0000000000000000     
 -0.86226627285424418       -2.1622662911991304        0.0000000000000000     
 -0.76226624149983402       -2.1622663210496027        0.0000000000000000     
 -0.66226609066179054       -2.1622664625948542        0.0000000000000000     
 -0.56226546967575985       -2.1622670276785447        0.0000000000000000     
 -0.46226348579515542       -2.1622687686500992        0.0000000000000000     
 -0.36225524716077484       -2.1622759335694237        0.0000000000000000     
 -0.26221522149241899       -2.1623103605144474        0.0000000000000000     
 -0.16203381679886839       -2.1624533312216241        0.0000000000000000     
  -6.1602397291994272E-002  -2.1627044570169596        0.0000000000000000     
   3.9032989562415396E-002  -2.1628977384516870        0.0000000000000000     
  0.14074435062565230       -2.1635568118781530        0.0000000000000000     
  0.24415816326009321       -2.1643926050378788        0.0000000000000000     
  0.36348579832851352       -2.1719241202718527        0.0000000000000000     
  0.46172816357026381       -2.1384655720746260        0.0000000000000000     
  0.52274360701117517       -2.1245534914755519        0.0000000000000000     
  -3.0557703624496666       -2.0866942947601550        0.0000000000000000     
  -2.9605658858907833       -2.0680207850033496        0.0000000000000000     
  -2.8620274423611791       -2.0630125141889266        0.0000000000000000     
  -2.7622491983298838       -2.0623193948397311        0.0000000000000000     
  -2.6622660491781427       -2.0622687040732046        0.0000000000000000     
  -2.5622663670988377       -2.0622664225579919        0.0000000000000000     
  -2.4622662893755427       -2.0622662901151125        0.0000000000000000     
  -2.3622662824272704       -2.0622662824348685        0.0000000000000000     
  -2.2622662821849340       -2.0622662821850462        0.0000000000000000     
  -2.1622662821782095       -2.0622662821782116        0.0000000000000000     
  -2.0622662821780109       -2.0622662821780109        0.0000000000000000     
  -1.9622662821780019       -2.0622662821780016        0.0000000000000000     
  -1.8622662821780016       -2.0622662821780016        0.0000000000000000     
  -1.7622662821780017       -2.0622662821780016        0.0000000000000000     
  -1.6622662821780017       -2.0622662821780016        0.0000000000000000     
  -1.5622662821780007       -2.0622662821780025        0.0000000000000000     
  -1.4622662821779973       -2.0622662821780056        0.0000000000000000     
  -1.3622662821779796       -2.0622662821780238        0.0000000000000000     
  -1.2622662821778592       -2.0622662821781432        0.0000000000000000     
  -1.1622662821771548       -2.0622662821788427        0.0000000000000000     
  -1.0622662821710736       -2.0622662821848636        0.0000000000000000     
 -0.96226628212773435       -2.0622662822275646        0.0000000000000000     
 -0.86226628190497756       -2.0622662824458211        0.0000000000000000     
 -0.76226628049412415       -2.0622662838183992        0.0000000000000000     
 -0.66226627286576178       -2.0622662911437120        0.0000000000000000     
 -0.56226624163232164       -2.0622663207035110        0.0000000000000000     
 -0.46226607612663922       -2.0622664762544223        0.0000000000000000     
 -0.36226497895272103       -2.0622675015990004        0.0000000000000000     
 -0.26225799649153519       -2.0622737890226790        0.0000000000000000     
 -0.16223336622019366       -2.0622940558467930        0.0000000000000000     
  -6.2174651014979675E-002  -2.0623369231915172        0.0000000000000000     
   3.8012076783713600E-002  -2.0624683770707568        0.0000000000000000     
  0.13864934317830799       -2.0628899658961140        0.0000000000000000     
  0.24093414289858908       -2.0640651349559480        0.0000000000000000     
  0.34397292349552044       -2.0634570518608779        0.0000000000000000     
  0.44424614295877629       -2.0593975438197143        0.0000000000000000     
  0.55330436355029344       -2.0600998690815695        0.0000000000000000     
  0.62817238030512990       -2.0346967614856131        0.0000000000000000     
  -3.0597914761359224       -1.9850595239674862        0.0000000000000000     
  -2.9615294580559519       -1.9676718488728904        0.0000000000000000     
  -2.8621532718157692       -1.9629713748631092        0.0000000000000000     
  -2.7622571663830908       -1.9623159395873591        0.0000000000000000     
  -2.6622659141598075       -1.9622681429512581        0.0000000000000000     
  -2.5622662799741973       -1.9622663234970597        0.0000000000000000     
  -2.4622662830014086       -1.9622662834259799        0.0000000000000000     
  -2.3622662822195020       -1.9622662822216184        0.0000000000000000     
  -2.2622662821787829       -1.9622662821787751        0.0000000000000000     
  -2.1622662821780145       -1.9622662821780141        0.0000000000000000     
  -2.0622662821780016       -1.9622662821780019        0.0000000000000000     
  -1.9622662821780017       -1.9622662821780017        0.0000000000000000     
  -1.8622662821780016       -1.9622662821780017        0.0000000000000000     
  -1.7622662821780017       -1.9622662821780017        0.0000000000000000     
  -1.6622662821780017       -1.9622662821780017        0.0000000000000000     
  -1.5622662821780016       -1.9622662821780017        0.0000000000000000     
  -1.4622662821780017       -1.9622662821780017        0.0000000000000000     
  -1.3622662821780016       -1.9622662821780017        0.0000000000000000     
  -1.2622662821780006       -1.9622662821780026        0.0000000000000000     
  -1.1622662821779890       -1.9622662821780144        0.0000000000000000     
  -1.0622662821778783       -1.9622662821781243        0.0000000000000000     
 -0.96226628217718202       -1.9622662821788153        0.0000000000000000     
 -0.86226628217109902       -1.9622662821848276        0.0000000000000000     
 -0.76226628212779701       -1.9622662822273875        0.0000000000000000     
 -0.66226628190635295       -1.9622662824437627        0.0000000000000000     
 -0.56226628039365600       -1.9622662839149749        0.0000000000000000     
 -0.46226626681007549       -1.9622662970808940        0.0000000000000000     
 -0.36226614113190891       -1.9622664167701387        0.0000000000000000     
 -0.26226551918526742       -1.9622669892408213        0.0000000000000000     
 -0.16226345894199309       -1.9622688103783685        0.0000000000000000     
  -6.2254976384385735E-002  -1.9622761399419648        0.0000000000000000     
   3.7785826228090513E-002  -1.9623105053152303        0.0000000000000000     
  0.13796989625808767       -1.9624498548866642        0.0000000000000000     
  0.23840394983837679       -1.9626835947432963        0.0000000000000000     
  0.33901402339027292       -1.9628033083759979        0.0000000000000000     
  0.44051126150437464       -1.9630643595514938        0.0000000000000000     
  0.54303108512982778       -1.9627670124228482        0.0000000000000000     
  0.65759576273489362       -1.9669817747617442        0.0000000000000000     
  0.73350389791929105       -1.9405140115664836        0.0000000000000000     
  -3.0613781121785895       -1.8830915536888508        0.0000000000000000     
  -2.9619190420568446       -1.8672288806640207        0.0000000000000000     
  -2.8622055404597497       -1.8629164372058538        0.0000000000000000     
  -2.7622609265952067       -1.8623122721853622        0.0000000000000000     
  -2.6622660416828601       -1.8622679998810563        0.0000000000000000     
  -2.5622662769805813       -1.8622663151500922        0.0000000000000000     
  -2.4622662821914614       -1.8622662824822349        0.0000000000000000     
  -2.3622662821859040       -1.8622662821793128        0.0000000000000000     
  -2.2622662821782198       -1.8622662821780045        0.0000000000000000     
  -2.1622662821780034       -1.8622662821780016        0.0000000000000000     
  -2.0622662821780016       -1.8622662821780016        0.0000000000000000     
  -1.9622662821780017       -1.8622662821780016        0.0000000000000000     
  -1.8622662821780016       -1.8622662821780016        0.0000000000000000     
  -1.7622662821780017       -1.8622662821780016        0.0000000000000000     
  -1.6622662821780017       -1.8622662821780016        0.0000000000000000     
  -1.5622662821780016       -1.8622662821780016        0.0000000000000000     
  -1.4622662821780017       -1.8622662821780016        0.0000000000000000     
  -1.3622662821780016       -1.8622662821780016        0.0000000000000000     
  -1.2622662821780017       -1.8622662821780016        0.0000000000000000     
  -1.1622662821780017       -1.8622662821780016        0.0000000000000000     
  -1.0622662821780007       -1.8622662821780025        0.0000000000000000     
 -0.96226628217798871       -1.8622662821780143        0.0000000000000000     
 -0.86226628217787826       -1.8622662821781240        0.0000000000000000     
 -0.76226628217718750       -1.8622662821788090        0.0000000000000000     
 -0.66226628217084815       -1.8622662821850717        0.0000000000000000     
 -0.56226628209267804       -1.8622662822621572        0.0000000000000000     
 -0.46226628100159084       -1.8622662833282038        0.0000000000000000     