 VARIABLES = "X", "Y", "Z", "Material ID"
 ZONE F=FEPOINT, ET=QUADRILATERAL, N=         789 E=         728
  -20.000000000000000       -20.000000000000000        0.0000000000000000                1
  -18.000000000000000       -20.000000000000000        0.0000000000000000                1
  -16.000000000000000       -20.000000000000000        0.0000000000000000                1
  -14.000000000000000       -20.000000000000000        0.0000000000000000                1
  -12.000000000000000       -20.000000000000000        0.0000000000000000                1
  -10.000000000000000       -20.000000000000000        0.0000000000000000                1
  -8.0000000000000000       -20.000000000000000        0.0000000000000000                1
  -6.0000000000000000       -20.000000000000000        0.0000000000000000                1
  -4.0000000000000000       -20.000000000000000        0.0000000000000000                1
  -2.0000000000000000       -20.000000000000000        0.0000000000000000                1
   0.0000000000000000       -20.000000000000000        0.0000000000000000                1
   2.0000000000000000       -20.000000000000000        0.0000000000000000                1
   4.0000000000000000       -20.000000000000000        0.0000000000000000                1
   6.0000000000000000       -20.000000000000000        0.0000000000000000                1
   8.0000000000000000       -20.000000000000000        0.0000000000000000                1
   10.000000000000000       -20.000000000000000        0.0000000000000000                1
   12.000000000000000       -20.000000000000000        0.0000000000000000                1
   14.000000000000000       -20.000000000000000        0.0000000000000000                1
   16.000000000000000       -20.000000000000000        0.0000000000000000                1
   18.000000000000000       -20.000000000000000        0.0000000000000000                1
   20.000000000000000       -20.000000000000000        0.0000000000000000                1
  -20.000000000000000       -18.000000000000000        0.0000000000000000                1
  -17.999999912630059       -17.999999912630308        0.0000000000000000                1
  -15.999999611599238       -17.999999639639952        0.0000000000000000                1
  -13.999998681615709       -17.999998874057937        0.0000000000000000                1
  -11.999996477341334       -17.999997229982281        0.0000000000000000                1
  -9.9999925455970526       -17.999994549486022        0.0000000000000000                1
  -7.9999875066001165       -17.999991264257929        0.0000000000000000                1
  -5.9999836317354776       -17.999988317333351        0.0000000000000000                1
  -3.9999840233411552       -17.999986501787550        0.0000000000000000                1
  -1.9999904100249397       -17.999985845107197        0.0000000000000000                1
  -1.2835257163307723E-006  -17.999985761989983        0.0000000000000000                1
   1.9999877030253401       -17.999985831855444        0.0000000000000000                1
   3.9999810621228571       -17.999986317671937        0.0000000000000000                1
   5.9999806396264068       -17.999987833238414        0.0000000000000000                1
   7.9999849043661628       -17.999990539038919        0.0000000000000000                1
   9.9999906558147096       -17.999993795352864        0.0000000000000000                1
   11.999995346636879       -17.999996645229118        0.0000000000000000                1
   13.999998129138604       -17.999998525719938        0.0000000000000000                1
   15.999999393513740       -17.999999478885709        0.0000000000000000                1
   17.999999846731651       -17.999999857984665        0.0000000000000000                1
   20.000000000000000       -18.000000000000000        0.0000000000000000                1
  -20.000000000000000       -16.000000000000000        0.0000000000000000                1
  -17.999999639631234       -15.999999611593823        0.0000000000000000                1
  -15.999998251855498       -15.999998251867289        0.0000000000000000                1
  -13.999993521437561       -15.999994061617222        0.0000000000000000                1
  -11.999981272790576       -15.999984355145228        0.0000000000000000                1
  -9.9999576827243892       -15.999967697154499        0.0000000000000000                1
  -7.9999253422442109       -15.999946910097108        0.0000000000000000                1
  -5.9998984530744552       -15.999928900305337        0.0000000000000000                1
  -3.9998983925935505       -15.999919426037181        0.0000000000000000                1
  -1.9999382765482980       -15.999917922120771        0.0000000000000000                1
  -8.9004433814027778E-006  -15.999918823714378        0.0000000000000000                1
   1.9999191909316796       -15.999918237368135        0.0000000000000000                1
   3.9998769109010706       -15.999918469602431        0.0000000000000000                1
   5.9998764116232532       -15.999925341844319        0.0000000000000000                1
   7.9999062439569473       -15.999941226272732        0.0000000000000000                1
   9.9999441111137024       -15.999961785259885        0.0000000000000000                1
   11.999973458389615       -15.999979909609257        0.0000000000000000                1
   13.999989905009700       -15.999991549162630        0.0000000000000000                1
   15.999996919270735       -15.999997170886825        0.0000000000000000                1
   17.999999266009834       -15.999999271143105        0.0000000000000000                1
   20.000000000000000       -16.000000000000000        0.0000000000000000                1
  -20.000000000000000       -14.000000000000000        0.0000000000000000                1
  -17.999998873960578       -13.999998681533219        0.0000000000000000                1
  -15.999994061257455       -13.999993521211646        0.0000000000000000                1
  -13.999975876608163       -13.999975877021278        0.0000000000000000                1
  -11.999923738981311       -13.999930985013092        0.0000000000000000                1
  -9.9998135160792057       -13.999848262337558        0.0000000000000000                1
  -7.9996494462843968       -13.999741441570505        0.0000000000000000                1
  -5.9995004526443827       -13.999651630045349        0.0000000000000000                1
  -3.9994844804920664       -13.999614080588998        0.0000000000000000                1
  -1.9996815464956388       -13.999622100830750        0.0000000000000000                1
  -4.7851743621815620E-005  -13.999635811126398        0.0000000000000000                1
   1.9995766681678888       -13.999627339880513        0.0000000000000000                1
   3.9993621752535780       -13.999611844797856        0.0000000000000000                1
   5.9993727401225661       -13.999631122465887        0.0000000000000000                1
   7.9995394016774810       -13.999705879477025        0.0000000000000000                1
   9.9997373738727404       -13.999811385885240        0.0000000000000000                1
   11.999881865391636       -13.999904325995121        0.0000000000000000                1
   13.999957692789673       -13.999961743308535        0.0000000000000000                1
   15.999987867138008       -13.999987919924582        0.0000000000000000                1
   17.999997276368823       -13.999997065371113        0.0000000000000000                1
   20.000000000000000       -14.000000000000000        0.0000000000000000                1
  -20.000000000000000       -12.000000000000000        0.0000000000000000                1
  -17.999997229244599       -11.999996476612020        0.0000000000000000                1
  -15.999984351732373       -11.999981269914260        0.0000000000000000                1
  -13.999930974361259       -11.999923732463893        0.0000000000000000                1
  -11.999760119272043       -11.999760130186216        0.0000000000000000                1
  -9.9993547396272575       -11.999426534852981        0.0000000000000000                1
  -7.9986831146569362       -11.998967108914199        0.0000000000000000                1
  -5.9980043825937663       -11.998584863107462        0.0000000000000000                1
  -3.9978558278983400       -11.998468578887323        0.0000000000000000                1
  -1.9986435633715629       -11.998574573068192        0.0000000000000000                1
  -2.0096051522564646E-004  -11.998678090072911        0.0000000000000000                1
   1.9981897396214707       -11.998621829610528        0.0000000000000000                1
   3.9973020337593446       -11.998480478209732        0.0000000000000000                1
   5.9974141835921166       -11.998490790590076        0.0000000000000000                1
   7.9981788849306099       -11.998786010845238        0.0000000000000000                1
   9.9990176097722294       -11.999240772303423        0.0000000000000000                1
   11.999584989934883       -11.999632840385516        0.0000000000000000                1
   13.999860468161756       -11.999861424253716        0.0000000000000000                1
   15.999962349784722       -11.999958821460897        0.0000000000000000                1
   17.999992023641287       -11.999990584416821        0.0000000000000000                1
   20.000000000000000       -12.000000000000000        0.0000000000000000                1
  -20.000000000000000       -10.000000000000000        0.0000000000000000                1
  -17.999994545344467       -9.9999925408970540        0.0000000000000000                1
  -15.999967675143932       -9.9999576611276311        0.0000000000000000                1
  -13.999848175951284       -9.9998134450256888        0.0000000000000000                1
  -11.999426302517556       -9.9993546036949503        0.0000000000000000                1
  -9.9982728362140403       -9.9982730505923971        0.0000000000000000                1
  -7.9960404770187905       -9.9965853085365293        0.0000000000000000                1
  -5.9934244583931511       -9.9951334662478697        0.0000000000000000                1
  -3.9925170589443830       -9.9948534254723072        0.0000000000000000                1
  -1.9951074369906303       -9.9955088416415769        0.0000000000000000                1
  -6.5486113027167210E-004  -9.9960574995764073        0.0000000000000000                1
   1.9935608739010491       -9.9958158317009538        0.0000000000000000                1
   3.9905072696338766       -9.9950234676480978        0.0000000000000000                1
   5.9912268650785512       -9.9947838105621365        0.0000000000000000                1
   7.9941893304927998       -9.9958188526498066        0.0000000000000000                1
   9.9970943055740946       -9.9975099253416655        0.0000000000000000                1
   11.998859478474090       -9.9988720913039657        0.0000000000000000                1
   13.999640352278943       -9.9996007088853709        0.0000000000000000                1
   15.999908634601912       -9.9998888764158380        0.0000000000000000                1
   17.999981636374720       -9.9999761039905906        0.0000000000000000                1
   20.000000000000000       -10.000000000000000        0.0000000000000000                1
  -20.000000000000000       -8.0000000000000000        0.0000000000000000                1
  -17.999991246721695       -7.9999874834555902        0.0000000000000000                1
  -15.999946805150685       -7.9999252233301146        0.0000000000000000                1
  -13.999740966996336       -7.9996489909027666        0.0000000000000000                1
  -11.998965505950512       -7.9986818467692498        0.0000000000000000                1
  -9.9965816224899022       -7.9960384626983885        0.0000000000000000                1
  -7.9906901675295625       -7.9906932299676958        0.0000000000000000                1
  -5.9818034085222900       -7.9853466375278659        0.0000000000000000                1
  -3.9772856914611983       -7.9850158550362407        0.0000000000000000                1
  -1.9845990142390981       -7.9880776890619263        0.0000000000000000                1
  -1.6206671740803579E-003  -7.9901222227536648        0.0000000000000000                1
   1.9804708927314492       -7.9896508014898648        0.0000000000000000                1
   3.9713642142933692       -7.9861570988858803        0.0000000000000000                1
   5.9750798645842798       -7.9842403202786114        0.0000000000000000                1
   7.9851753171638471       -7.9878922039469531        0.0000000000000000                1
   9.9933475387906405       -7.9934583070075123        0.0000000000000000                1
   11.997581081306297       -7.9972558055261738        0.0000000000000000                1
   13.999288133950429       -7.9991011618113896        0.0000000000000000                1
   15.999828442524283       -7.9997664665867543        0.0000000000000000                1
   17.999966844766551       -7.9999526224663144        0.0000000000000000                1
   20.000000000000000       -8.0000000000000000        0.0000000000000000                1
  -20.000000000000000       -6.0000000000000000        0.0000000000000000                1
  -17.999988261089996       -5.9999835429175832        0.0000000000000000                1
  -15.999928525337250       -5.9998979508668393        0.0000000000000000                1
  -13.999649716614570       -5.9994983097461914        0.0000000000000000                1
  -11.998577402445262       -5.9979974743784243        0.0000000000000000                1
  -9.9951118929924316       -5.9934084065027626        0.0000000000000000                1
  -7.9853047614122836       -5.9817826218391135        0.0000000000000000                1
  -5.9577506530006268       -5.9577812619075612        0.0000000000000000                1
  -3.9355226030427111       -5.9609456876853022        0.0000000000000000                1
  -1.9574367766957264       -5.9764761664827937        0.0000000000000000                1
  -2.8586686706533341E-003  -5.9749266388426649        0.0000000000000000                1
   1.9490875204223024       -5.9830497913198322        0.0000000000000000                1
   3.9211247564650229       -5.9668881911686027        0.0000000000000000                1
   5.9401509184795449       -5.9543368942381498        0.0000000000000000                1
   7.9717323490239025       -5.9723278169610916        0.0000000000000000                1
   9.9884199482054505       -5.9863620977467322        0.0000000000000000                1
   11.996203991854639       -5.9949137811715403        0.0000000000000000                1
   13.998942965250222       -5.9984728503755402        0.0000000000000000                1
   15.999752342710622       -5.9996280850991424        0.0000000000000000                1
   17.999952838106683       -5.9999282490591197        0.0000000000000000                1
   20.000000000000000       -6.0000000000000000        0.0000000000000000                1
  -20.000000000000000       -4.0000000000000000        0.0000000000000000                1
  -17.999986365426906       -3.9999837539111858        0.0000000000000000                1
  -15.999918424692478       -3.9998967380795425        0.0000000000000000                1
  -13.999608379668546       -3.9994767440060937        0.0000000000000000                1
  -11.998443390490346       -3.9978281713873658        0.0000000000000000                1
  -9.9947686332902315       -3.9924429028508270        0.0000000000000000                1
  -7.9848066302111649       -3.9771444784389955        0.0000000000000000                1
  -5.9606120827464011       -3.9353752851115713        0.0000000000000000                1
  -3.7651051737361860       -3.7653027903968881        0.0000000000000000                1
  -1.9314906823465097       -4.1960042690796282        0.0000000000000000                1
  -3.0441671897033827E-003  -3.6800507556837228        0.0000000000000000                1
   1.9205970386745586       -4.2142330105047883        0.0000000000000000                1
   3.7372068143752437       -3.7997769069691465        0.0000000000000000                1
   5.9161309881010533       -3.9175297987560960        0.0000000000000000                1
   7.9577039655108335       -3.9464880581021058        0.0000000000000000                1
   9.9866333846325794       -3.9796502989931830        0.0000000000000000                1
   11.995835701780894       -3.9933776719502285        0.0000000000000000                1
   13.998834596703631       -3.9981623578529177        0.0000000000000000                1
   15.999721552601590       -3.9995752810949199        0.0000000000000000                1
   17.999945859460887       -3.9999211471801019        0.0000000000000000                1
   20.000000000000000       -4.0000000000000000        0.0000000000000000                1
  -20.000000000000000       -2.0000000000000000        0.0000000000000000                1
  -17.999985598875828       -1.9999897560002835        0.0000000000000000                1
  -15.999915951913087       -1.9999339764233144        0.0000000000000000                1
  -13.999609728289800       -1.9996598176568539        0.0000000000000000                1
  -11.998513271646491       -1.9985587568413228        0.0000000000000000                1
  -9.9952715274162394       -1.9948551203080616        0.0000000000000000                1
  -7.9873805488524958       -1.9840443669451064        0.0000000000000000                1
  -5.9750002448154662       -1.9565973252959852        0.0000000000000000                1
  -4.1942397937994915       -1.9307522250205806        0.0000000000000000                1
  -1.8696838188331142       -1.8700700020127048        0.0000000000000000                1
   1.1899790100791871E-003  -1.9304597371436361        0.0000000000000000                1
   1.8551641349559265       -1.9069717123204137        0.0000000000000000                1
   4.1504550469598556       -2.1446856925568509        0.0000000000000000                1
   5.8199627016093984       -1.7639210076825069        0.0000000000000000                1
   7.9789828453076890       -1.9428468817081572        0.0000000000000000                1
   9.9915370722920063       -1.9830062326015723        0.0000000000000000                1
   11.996790748314522       -1.9950092827817516        0.0000000000000000                1
   13.998986161363790       -1.9986875848565400        0.0000000000000000                1
   15.999737833242341       -1.9997067153736632        0.0000000000000000                1
   17.999946243244587       -1.9999468359009096        0.0000000000000000                1
   20.000000000000000       -2.0000000000000000        0.0000000000000000                1
  -20.000000000000000        0.0000000000000000        0.0000000000000000                1
  -17.999985447198210        3.1957193616160311E-017   0.0000000000000000                1
  -15.999916089137976        8.5441632343435852E-017   0.0000000000000000                1
  -13.999617007926332        6.5298221660253778E-017   0.0000000000000000                1
  -11.998574652149740        3.5336115170505262E-016   0.0000000000000000                1
  -9.9956009809173363        6.3352767212312759E-015   0.0000000000000000                1
  -7.9885177162844174        9.0736641280026820E-014   0.0000000000000000                1
  -5.9706857265913253        7.1935432971998500E-013   0.0000000000000000                1
  -3.6719779784748305        9.6351652529183507E-012   0.0000000000000000                1
  -1.9260156331903004        4.6349410473222050E-011   0.0000000000000000                1
   1.9396849118555664        3.1399366768601890E-007   0.0000000000000000                1
   4.0358933818852254        1.4838953350083055E-009   0.0000000000000000                1
   6.2619654675159016        2.5220823997409389E-011   0.0000000000000000                1
   8.0069320634839762        7.0324475188143650E-012   0.0000000000000000                1
   9.9956754775004022        5.1619384271226925E-013   0.0000000000000000                1
   11.997513459882059        2.7856974228642305E-014   0.0000000000000000                1
   13.999104839746076        1.2233305485289710E-015   0.0000000000000000                1
   15.999753765765286        9.9214930191692449E-017   0.0000000000000000                1
   17.999947734126000        3.3172920595561341E-017   0.0000000000000000                1
   20.000000000000000        0.0000000000000000        0.0000000000000000                1
  -20.000000000000000        2.0000000000000000        0.0000000000000000                1
  -17.999985598875828        1.9999897560002835        0.0000000000000000                1
  -15.999915951913087        1.9999339764233144        0.0000000000000000                1
  -13.999609728289800        1.9996598176568539        0.0000000000000000                1
  -11.998513271646496        1.9985587568413234        0.0000000000000000                1
  -9.9952715274163424        1.9948551203080780        0.0000000000000000                1
  -7.9873805488545848        1.9840443669454049        0.0000000000000000                1
  -5.9750002448451909        1.9565973253001230        0.0000000000000000                1
  -4.1942397939302127        1.9307522250378286        0.0000000000000000                1
  -1.8696838319427773        1.8700700036668567        0.0000000000000000                1
   1.1885509537680817E-003   1.9304599177450674        0.0000000000000000                1
   1.8551628611253341        1.9069718761817414        0.0000000000000000                1
   4.1504550266829687        2.1446856954944495        0.0000000000000000                1
   5.8199626997832841        1.7639210079676271        0.0000000000000000                1
   7.9789828452028964        1.9428468817249918        0.0000000000000000                1
   9.9915370722867021        1.9830062326026230        0.0000000000000000                1
   11.996790748314298        1.9950092827818056        0.0000000000000000                1
   13.998986161363783        1.9986875848565424        0.0000000000000000                1
   15.999737833242341        1.9997067153736632        0.0000000000000000                1
   17.999946243244587        1.9999468359009096        0.0000000000000000                1
   20.000000000000000        2.0000000000000000        0.0000000000000000                1
  -20.000000000000000        4.0000000000000000        0.0000000000000000                1
  -17.999986365426906        3.9999837539111858        0.0000000000000000                1
  -15.999918424692478        3.9998967380795425        0.0000000000000000                1
  -13.999608379668546        3.9994767440060937        0.0000000000000000                1
  -11.998443390490349        3.9978281713873671        0.0000000000000000                1
  -9.9947686332904020        3.9924429028508492        0.0000000000000000                1
  -7.9848066302147984        3.9771444784394632        0.0000000000000000                1
  -5.9606120828111822        3.9353752851198158        0.0000000000000000                1
  -3.7651051748903419        3.7653027905433341        0.0000000000000000                1
  -1.9314906949749298        4.1960042706819065        0.0000000000000000                1
  -3.0443177216355182E-003   3.6800507747889393        0.0000000000000000                1
   1.9205970097240519        4.2142330142039874        0.0000000000000000                1
   3.7372067984552797        3.7997769090488553        0.0000000000000000                1
   5.9161309867046867        3.9175297989464339        0.0000000000000000                1
   7.9577039654038169        3.9464880581173092        0.0000000000000000                1
   9.9866333846263675        3.9796502989940872        0.0000000000000000                1
   11.995835701780605        3.9933776719502738        0.0000000000000000                1
   13.998834596703622        3.9981623578529195        0.0000000000000000                1
   15.999721552601590        3.9995752810949199        0.0000000000000000                1
   17.999945859460887        3.9999211471801015        0.0000000000000000                1
   20.000000000000000        4.0000000000000000        0.0000000000000000                1
  -20.000000000000000        6.0000000000000000        0.0000000000000000                1
  -17.999988261089996        5.9999835429175832        0.0000000000000000                1
  -15.999928525337250        5.9998979508668393        0.0000000000000000                1
  -13.999649716614570        5.9994983097461914        0.0000000000000000                1
  -11.998577402445271        5.9979974743784261        0.0000000000000000                1
  -9.9951118929925986        5.9934084065027848        0.0000000000000000                1
  -7.9853047614156720        5.9817826218395451        0.0000000000000000                1
  -5.9577506530569684        5.9577812619147181        0.0000000000000000                1
  -3.9355226037053148        5.9609456877694482        0.0000000000000000                1
  -1.9574367825004582        5.9764761672198370        0.0000000000000000                1
  -2.8586794787434202E-003   5.9749266402156183        0.0000000000000000                1
   1.9490875134034189        5.9830497922136159        0.0000000000000000                1
   3.9211247545845787        5.9668881914108969        0.0000000000000000                1
   5.9401509179562888        5.9543368943064969        0.0000000000000000                1
   7.9717323489714849        5.9723278169681073        0.0000000000000000                1
   9.9884199482016776        5.9863620977472491        0.0000000000000000                1
   11.996203991854438        5.9949137811715687        0.0000000000000000                1
   13.998942965250212        5.9984728503755411        0.0000000000000000                1
   15.999752342710622        5.9996280850991424        0.0000000000000000                1
   17.999952838106683        5.9999282490591188        0.0000000000000000                1
   20.000000000000000        6.0000000000000000        0.0000000000000000                1
  -20.000000000000000        8.0000000000000000        0.0000000000000000                1
  -17.999991246721695        7.9999874834555902        0.0000000000000000                1
  -15.999946805150685        7.9999252233301146        0.0000000000000000                1
  -13.999740966996336        7.9996489909027666        0.0000000000000000                1
  -11.998965505950517        7.9986818467692506        0.0000000000000000                1
  -9.9965816224900053        7.9960384626984036        0.0000000000000000                1
  -7.9906901675313851        7.9906932299679285        0.0000000000000000                1
  -5.9818034085453213        7.9853466375307924        0.0000000000000000                1
  -3.9772856916558568        7.9850158550609729        0.0000000000000000                1
  -1.9845990148459351        7.9880776891390370        0.0000000000000000                1
  -1.6206680663494561E-003   7.9901222228671012        0.0000000000000000                1
   1.9804708920485588        7.9896508015768033        0.0000000000000000                1
   3.9713642140126342        7.9861570989217636        0.0000000000000000                1
   5.9750798645149477        7.9842403202875607        0.0000000000000000                1
   7.9851753171498698        7.9878922039487783        0.0000000000000000                1
   9.9933475387892798        7.9934583070076926        0.0000000000000000                1
   11.997581081306210        7.9972558055261853        0.0000000000000000                1
   13.999288133950426        7.9991011618113905        0.0000000000000000                1
   15.999828442524283        7.9997664665867543        0.0000000000000000                1
   17.999966844766551        7.9999526224663144        0.0000000000000000                1
   20.000000000000000        8.0000000000000000        0.0000000000000000                1
  -20.000000000000000        10.000000000000000        0.0000000000000000                1
  -17.999994545344467        9.9999925408970540        0.0000000000000000                1
  -15.999967675143932        9.9999576611276311        0.0000000000000000                1
  -13.999848175951284        9.9998134450256888        0.0000000000000000                1
  -11.999426302517559        9.9993546036949503        0.0000000000000000                1
  -9.9982728362140811        9.9982730505924025        0.0000000000000000                1
  -7.9960404770193660        9.9965853085366039        0.0000000000000000                1
  -5.9934244583983487        9.9951334662485287        0.0000000000000000                1
  -3.9925170589660492        9.9948534254750605        0.0000000000000000                1
  -1.9951074370392012        9.9955088416477516        0.0000000000000000                1
  -6.5486119468173554E-004   9.9960574995845999        0.0000000000000000                1
   1.9935608738484742        9.9958158317076489        0.0000000000000000                1
   3.9905072696072614        9.9950234676514924        0.0000000000000000                1
   5.9912268650701455        9.9947838105632112        0.0000000000000000                1