 VARIABLES = "X", "Y", "Z", "Material ID"
 ZONE F=FEPOINT, ET=QUADRILATERAL, N=        4817 E=        4418
   33.578805470883850       -28.075740341692178        0.0000000000000000                1
   34.962852709838373       -28.020253937123261        0.0000000000000000                1
   35.852595258747272       -27.940342402654274        0.0000000000000000                1
   36.829838706946965       -27.910682248497729        0.0000000000000000                1
   37.826419281990006       -27.901778652344394        0.0000000000000000                1
   38.826368003567595       -27.899759921838957        0.0000000000000000                1
   39.826561006620373       -27.898987208221396        0.0000000000000000                1
   40.827542545379210       -27.897172564145855        0.0000000000000000                1
   41.830717190149045       -27.892996296793484        0.0000000000000000                1
   42.836642076991744       -27.887006993893543        0.0000000000000000                1
   43.842080859934470       -27.886193900801597        0.0000000000000000                1
   44.834772389942479       -27.906692370134120        0.0000000000000000                1
   45.819670372574919       -27.915614391575762        0.0000000000000000                1
   46.810514057323552       -27.903054143991383        0.0000000000000000                1
   47.811015517572514       -27.882197560625219        0.0000000000000000                1
   48.819372400947771       -27.884740284303692        0.0000000000000000                1
   49.825902629146633       -27.892099461330094        0.0000000000000000                1
   50.828978647967382       -27.896934332485650        0.0000000000000000                1
   51.829621283483817       -27.899014683447355        0.0000000000000000                1
   52.829072853280806       -27.899680127743299        0.0000000000000000                1
   53.828093021883070       -27.899844838077811        0.0000000000000000                1
   54.826994993459230       -27.899876986315579        0.0000000000000000                1
   55.825872103805935       -27.899881992940855        0.0000000000000000                1
   56.824745745100643       -27.899882620556575        0.0000000000000000                1
   57.823622960153450       -27.899882684335193        0.0000000000000000                1
   58.822521965273090       -27.899882689620135        0.0000000000000000                1
   59.821519399252452       -27.899882689978991        0.0000000000000000                1
   60.820900718042544       -27.899882689999039        0.0000000000000000                1
   61.821629177753096       -27.899882689999963        0.0000000000000000                1
   62.826880960086882       -27.899882689999998        0.0000000000000000                1
   63.832132742420640       -27.899882689999998        0.0000000000000000                1
   64.832861202130260       -27.899882689999998        0.0000000000000000                1
   65.832242520900607       -27.899882689999998        0.0000000000000000                1
   66.831239954527391       -27.899882689999998        0.0000000000000000                1
   67.830138954485378       -27.899882689999998        0.0000000000000000                1
   68.829016107774436       -27.899882689999998        0.0000000000000000                1
   69.827889148530957       -27.899882689999998        0.0000000000000000                1
   70.826761547658094       -27.899882689999998        0.0000000000000000                1
   71.825633946785217       -27.899882689999998        0.0000000000000000                1
   72.824506987541724       -27.899882689999998        0.0000000000000000                1
   73.823384140830782       -27.899882689999998        0.0000000000000000                1
   74.822283140788770       -27.899882689999998        0.0000000000000000                1
   75.821280574415582       -27.899882689999998        0.0000000000000000                1
   76.820661893185900       -27.899882689999998        0.0000000000000000                1
   77.821390352895548       -27.899882689999998        0.0000000000000000                1
   78.826642135229349       -27.899882689999998        0.0000000000000000                1
   79.831893917563136       -27.899882689999998        0.0000000000000000                1
   80.832622377272799       -27.899882689999998        0.0000000000000000                1
   81.832003696043159       -27.899882689999998        0.0000000000000000                1
   82.831001129669986       -27.899882689999998        0.0000000000000000                1
   83.829900129627973       -27.899882689999998        0.0000000000000000                1
   84.828777282917088       -27.899882689999998        0.0000000000000000                1
   85.827650323673652       -27.899882689999998        0.0000000000000000                1
   86.826522722800831       -27.899882689999998        0.0000000000000000                1
   87.825395121927968       -27.899882689999998        0.0000000000000000                1
   88.824268162684518       -27.899882689999998        0.0000000000000000                1
   89.823145315973562       -27.899882689999998        0.0000000000000000                1
   90.822044315931606       -27.899882689999998        0.0000000000000000                1
   91.821041749558432       -27.899882689999998        0.0000000000000000                1
   92.820423068328779       -27.899882689999998        0.0000000000000000                1
   93.821151528038442       -27.899882689999998        0.0000000000000000                1
   94.826403310372243       -27.899882689999998        0.0000000000000000                1
   95.831655092706214       -27.899882689999867        0.0000000000000000                1
   96.832383552418690       -27.899882689997050        0.0000000000000000                1
   97.831764871226937       -27.899882689943976        0.0000000000000000                1
   98.830762305261203       -27.899882689095612        0.0000000000000000                1
   99.829661308613808       -27.899882677567202        0.0000000000000000                1
   100.82853848205872       -27.899882544526708        0.0000000000000000                1
   101.82741158244124       -27.899881242994486        0.0000000000000000                1
   102.82628367309702       -27.899870478647635        0.0000000000000000                1
   103.82515019056405       -27.899795489619738        0.0000000000000000                1
   104.82397480282826       -27.899357264289307        0.0000000000000000                1
   105.82256863756456       -27.897216319228033        0.0000000000000000                1
   106.82013955794191       -27.888471076578089        0.0000000000000000                1
   107.81378638851106       -27.858300675081008        0.0000000000000000                1
   108.77804621850738       -27.767686088293736        0.0000000000000000                1
   109.63411774874426       -27.523209524599803        0.0000000000000000                1
   33.566451753841541       -26.943588518636172        0.0000000000000000                1
   34.500006281070846       -27.082374654479398        0.0000000000000000                1
   35.605695087885827       -26.960818067999792        0.0000000000000000                1
   36.639698097863011       -26.916362273747509        0.0000000000000000                1
   37.656968823928132       -26.902415898387765        0.0000000000000000                1
   38.666258913239275       -26.899145225065134        0.0000000000000000                1
   39.671252826058407       -26.897588873603844        0.0000000000000000                1
   40.676445843450061       -26.893359730983953        0.0000000000000000                1
   41.686268228726775       -26.883061550913663        0.0000000000000000                1
   42.703902576710760       -26.865320039651877        0.0000000000000000                1
   43.727803366281869       -26.852587335679125        0.0000000000000000                1
   44.707919866378724       -26.932682001982315        0.0000000000000000                1
   45.661819211898987       -26.962660374355057        0.0000000000000000                1
   46.622633875495609       -26.920216288226097        0.0000000000000000                1
   47.611001859487182       -26.839769952669897        0.0000000000000000                1
   48.640522989569291       -26.858745694475026        0.0000000000000000                1
   49.658699745634848       -26.880540432269470        0.0000000000000000                1
   50.667556650630672       -26.892689862722133        0.0000000000000000                1
   51.671030850012507       -26.897721597984070        0.0000000000000000                1
   52.671891315956060       -26.899356172387392        0.0000000000000000                1
   53.671752802570531       -26.899778489258679        0.0000000000000000                1
   54.671320285636625       -26.899865897870537        0.0000000000000000                1
   55.670820812185958       -26.899880479470294        0.0000000000000000                1
   56.670309892314471       -26.899882451455092        0.0000000000000000                1
   57.669800759624380       -26.899882668823565        0.0000000000000000                1
   58.669309793364661       -26.899882688448436        0.0000000000000000                1
   59.668897423268774       -26.899882689905905        0.0000000000000000                1
   60.668756153532065       -26.899882689995270        0.0000000000000000                1
   61.669345492251281       -26.899882689999803        0.0000000000000000                1
   62.671281971905465       -26.899882689999995        0.0000000000000000                1
   63.673218451559485       -26.899882689999998        0.0000000000000000                1
   64.673807790274154       -26.899882689999998        0.0000000000000000                1
   65.673666520447881       -26.899882689999998        0.0000000000000000                1
   66.673254148895353       -26.899882689999998        0.0000000000000000                1
   67.672763163120408       -26.899882689999998        0.0000000000000000                1
   68.672253816083270       -26.899882689999998        0.0000000000000000                1
   69.671740977370931       -26.899882689999998        0.0000000000000000                1
   70.671227601724127       -26.899882689999998        0.0000000000000000                1
   71.670714226077337       -26.899882689999998        0.0000000000000000                1
   72.670201387364983       -26.899882689999998        0.0000000000000000                1
   73.669692040327803       -26.899882689999998        0.0000000000000000                1
   74.669201054552872       -26.899882689999998        0.0000000000000000                1
   75.668788683000358       -26.899882689999998        0.0000000000000000                1
   76.668647413174085       -26.899882689999998        0.0000000000000000                1
   77.669236751888761       -26.899882689999998        0.0000000000000000                1
   78.671173231542767       -26.899882689999998        0.0000000000000000                1
   79.673109711196787       -26.899882689999998        0.0000000000000000                1
   80.673699049911491       -26.899882689999998        0.0000000000000000                1
   81.673557780085218       -26.899882689999998        0.0000000000000000                1
   82.673145408532704       -26.899882689999998        0.0000000000000000                1
   83.672654422757773       -26.899882689999998        0.0000000000000000                1
   84.672145075720607       -26.899882689999998        0.0000000000000000                1
   85.671632237008282       -26.899882689999998        0.0000000000000000                1
   86.671118861361506       -26.899882689999998        0.0000000000000000                1
   87.670605485714745       -26.899882689999998        0.0000000000000000                1
   88.670092647002392       -26.899882689999998        0.0000000000000000                1
   89.669583299965240       -26.899882689999998        0.0000000000000000                1
   90.669092314190294       -26.899882689999998        0.0000000000000000                1
   91.668679942637780       -26.899882689999998        0.0000000000000000                1
   92.668538672811508       -26.899882689999998        0.0000000000000000                1
   93.669128011526240       -26.899882689999998        0.0000000000000000                1
   94.671064491180232       -26.899882689999998        0.0000000000000000                1
   95.673000970834366       -26.899882689999906        0.0000000000000000                1
   96.673590309550974       -26.899882689997668        0.0000000000000000                1
   97.673449039753535       -26.899882689951127        0.0000000000000000                1
   98.673036668548576       -26.899882689136948        0.0000000000000000                1
   99.672545686113494       -26.899882677136024        0.0000000000000000                1
   100.67203636392371       -26.899882528358354        0.0000000000000000                1
   101.67152365948404       -26.899880981086461        0.0000000000000000                1
   102.67101070951713       -26.899867530880069        0.0000000000000000                1
   103.67049692774175       -26.899770273967299        0.0000000000000000                1
   104.66996874697124       -26.899188932713464        0.0000000000000000                1
   105.66934315435107       -26.896338665989244        0.0000000000000000                1
   106.66824235705428       -26.884984027016220        0.0000000000000000                1
   107.66516865484563       -26.848663812559440        0.0000000000000000                1
   108.65469079572922       -26.757100836996859        0.0000000000000000                1
   109.63511685573458       -26.584434492925418        0.0000000000000000                1
   33.619545889403767       -26.320195216786480        0.0000000000000000                1
   34.366770340080535       -25.980864353173210        0.0000000000000000                1
   35.463215983695498       -25.955164616056393        0.0000000000000000                1
   36.511270185750853       -25.921319041380784        0.0000000000000000                1
   37.550378528267515       -25.904589537600099        0.0000000000000000                1
   38.574385166343021       -25.899115811127100        0.0000000000000000                1
   39.587206182340992       -25.896239733375975        0.0000000000000000                1
   40.597784219796679       -25.889647032351654        0.0000000000000000                1
   41.613979331374708       -25.873020702728198        0.0000000000000000                1
   42.643783896192176       -25.834313207646211        0.0000000000000000                1
   43.731849862459697       -25.730705376598852        0.0000000000000000                1
   44.679629224394304       -26.023363200124294        0.0000000000000000                1
   45.564458442667359       -26.100201091178199        0.0000000000000000                1
   46.470296089233891       -25.986741036816692        0.0000000000000000                1
   47.432494266490700       -25.697630892586716        0.0000000000000000                1
   48.538659609095546       -25.820930902552835        0.0000000000000000                1
   49.567791158789717       -25.868029583039704        0.0000000000000000                1
   50.580125830011980       -25.888182458660545        0.0000000000000000                1
   51.585686516381969       -25.896215959388122        0.0000000000000000                1
   52.587714391834382       -25.898929404210186        0.0000000000000000                1
   53.588200143995074       -25.899679291361622        0.0000000000000000                1
   54.588174316645876       -25.899847172614709        0.0000000000000000                1
   55.588018950394122       -25.899877609428913        0.0000000000000000                1
   56.587838297731523       -25.899882093104519        0.0000000000000000                1
   57.587655226037107       -25.899882632217732        0.0000000000000000                1
   58.587479983457889       -25.899882685376053        0.0000000000000000                1
   59.587339906701132       -25.899882689693204        0.0000000000000000                1
   60.587314529078199       -25.899882689983077        0.0000000000000000                1
   61.587560252899216       -25.899882689999220        0.0000000000000000                1
   62.588189861848143       -25.899882689999970        0.0000000000000000                1
   63.588819470796373       -25.899882689999998        0.0000000000000000                1
   64.589065194600764       -25.899882689999998        0.0000000000000000                1
   65.589039816678749       -25.899882689999998        0.0000000000000000                1
   66.588899735467905       -25.899882689999998        0.0000000000000000                1
   67.588724438178090       -25.899882689999998        0.0000000000000000                1
   68.588540815191664       -25.899882689999998        0.0000000000000000                1
   69.588355635643666       -25.899882689999998        0.0000000000000000                1
   70.588170225167644       -25.899882689999998        0.0000000000000000                1
   71.587984814691609       -25.899882689999998        0.0000000000000000                1
   72.587799635143639       -25.899882689999998        0.0000000000000000                1
   73.587616012157184       -25.899882689999998        0.0000000000000000                1
   74.587440714867355       -25.899882689999998        0.0000000000000000                1
   75.587300633656483       -25.899882689999998        0.0000000000000000                1
   76.587275255734497       -25.899882689999998        0.0000000000000000                1
   77.587520979538894       -25.899882689999998        0.0000000000000000                1
   78.588150588487082       -25.899882689999998        0.0000000000000000                1
   79.588780197435256       -25.899882689999998        0.0000000000000000                1
   80.589025921239653       -25.899882689999998        0.0000000000000000                1
   81.589000543317667       -25.899882689999998        0.0000000000000000                1
   82.588860462106851       -25.899882689999998        0.0000000000000000                1
   83.588685164817008       -25.899882689999998        0.0000000000000000                1
   84.588501541830553       -25.899882689999998        0.0000000000000000                1
   85.588316362282569       -25.899882689999998        0.0000000000000000                1
   86.588130951806576       -25.899882689999998        0.0000000000000000                1
   87.587945541330512       -25.899882689999998        0.0000000000000000                1
   88.587760361782514       -25.899882689999998        0.0000000000000000                1
   89.587576738796059       -25.899882689999998        0.0000000000000000                1
   90.587401441506273       -25.899882689999998        0.0000000000000000                1
   91.587261360295386       -25.899882689999998        0.0000000000000000                1
   92.587235982373429       -25.899882689999998        0.0000000000000000                1
   93.587481706177840       -25.899882689999998        0.0000000000000000                1
   94.588111315126028       -25.899882689999998        0.0000000000000000                1
   95.588740924074258       -25.899882689999949        0.0000000000000000                1
   96.588986647879395       -25.899882689998606        0.0000000000000000                1
   97.588961269970852       -25.899882689968340        0.0000000000000000                1
   98.588821188957354       -25.899882689395572        0.0000000000000000                1
   99.588645894083314       -25.899882680317635        0.0000000000000000                1
   100.58846229589216       -25.899882560113987        0.0000000000000000                1
   101.58827733154222       -25.899881234717764        0.0000000000000000                1
   102.58809351754809       -25.899869117556300        0.0000000000000000                1
   103.58791832848847       -25.899777776982077        0.0000000000000000                1
   104.58778973973529       -25.899214102674406        0.0000000000000000                1
   105.58787415060594       -25.896392340517998        0.0000000000000000                1
   106.58876094979577       -25.885067233858237        0.0000000000000000                1
   107.59205929773790       -25.849179237403234        0.0000000000000000                1
   108.60113374313487       -25.761242208626761        0.0000000000000000                1
   109.62309877928517       -25.599728226062048        0.0000000000000000                1
   34.659608926944479       -25.287746444112944        0.0000000000000000                1
   35.375415705739648       -25.015297033172022        0.0000000000000000                1
   36.403310835814793       -24.950919227822087        0.0000000000000000                1
   37.479176720690802       -24.916581246565663        0.0000000000000000                1
   38.526996797805936       -24.902652281609626        0.0000000000000000                1
   39.551238348692486       -24.896691690563479        0.0000000000000000                1
   40.567820286102304       -24.889960076812208        0.0000000000000000                1
   41.584489795104780       -24.878652081593884        0.0000000000000000                1
   42.576113564723016       -24.866688615000385        0.0000000000000000                1
   43.369652087310364       -24.877743358095152        0.0000000000000000                1
   47.750670994337050       -24.855800706793687        0.0000000000000000                1
   48.561954632334967       -24.851614964817493        0.0000000000000000                1
   49.541327199060554       -24.871420133947307        0.0000000000000000                1
   50.545742199314020       -24.887037984951235        0.0000000000000000                1
   51.550931657220566       -24.895237712655085        0.0000000000000000                1
   52.553563917247047       -24.898526806846515        0.0000000000000000                1
   53.554466578319911       -24.899562529034384        0.0000000000000000                1
   54.554668974550516       -24.899821363984653        0.0000000000000000                1
   55.554668765337041       -24.899873123232421        0.0000000000000000                1
   56.554624238604113       -24.899881468993161        0.0000000000000000                1
   57.554572581939460       -24.899882561900252        0.0000000000000000                1
   58.554522437307931       -24.899882678903040        0.0000000000000000                1
   59.554483130630842       -24.899882689203032        0.0000000000000000                1
   60.554479029887453       -24.899882689952381        0.0000000000000000                1
   61.554553542623118       -24.899882689997629        0.0000000000000000                1
   62.554726488986823       -24.899882689999902        0.0000000000000000                1
   63.554899435348240       -24.899882689999998        0.0000000000000000                1
   64.554973948036164       -24.899882689999998        0.0000000000000000                1
   65.554969846498693       -24.899882689999998        0.0000000000000000                1
   66.554930528881400       -24.899882689999998        0.0000000000000000                1
   67.554880259962360       -24.899882689999998        0.0000000000000000                1
   68.554827446644254       -24.899882689999998        0.0000000000000000                1
   69.554774175714130       -24.899882689999998        0.0000000000000000                1
   70.554720840398460       -24.899882689999998        0.0000000000000000                1
   71.554667505082776       -24.899882689999998        0.0000000000000000                1
   72.554614234152638       -24.899882689999998        0.0000000000000000                1
   73.554561420834560       -24.899882689999998        0.0000000000000000                1
   74.554511151915534       -24.899882689999998        0.0000000000000000                1
   75.554471834298241       -24.899882689999998        0.0000000000000000                1
   76.554467732760799       -24.899882689999998        0.0000000000000000                1
   77.554542245448701       -24.899882689999998        0.0000000000000000                1
   78.554715191809990       -24.899882689999998        0.0000000000000000                1
   79.554888138171293       -24.899882689999998        0.0000000000000000                1
   80.554962650859210       -24.899882689999998        0.0000000000000000                1
   81.554958549321768       -24.899882689999998        0.0000000000000000                1
   82.554919231704517       -24.899882689999998        0.0000000000000000                1
   83.554868962785477       -24.899882689999998        0.0000000000000000                1
   84.554816149467385       -24.899882689999998        0.0000000000000000                1
   85.554762878537218       -24.899882689999998        0.0000000000000000                1
   86.554709543221534       -24.899882689999998        0.0000000000000000                1
   87.554656207905865       -24.899882689999998        0.0000000000000000                1
   88.554602936975726       -24.899882689999998        0.0000000000000000                1
   89.554550123657634       -24.899882689999998        0.0000000000000000                1
   90.554499854738594       -24.899882689999998        0.0000000000000000                1
   91.554460537121301       -24.899882689999998        0.0000000000000000                1
   92.554456435583873       -24.899882689999998        0.0000000000000000                1
   93.554530948271776       -24.899882689999998        0.0000000000000000                1
   94.554703894633079       -24.899882689999998        0.0000000000000000                1
   95.554876840994410       -24.899882689999963        0.0000000000000000                1
   96.554951353682654       -24.899882689998940        0.0000000000000000                1
   97.554947252152431       -24.899882689975215        0.0000000000000000                1
   98.554907934664286       -24.899882689514012        0.0000000000000000                1
   99.554857667682157       -24.899882681999951        0.0000000000000000                1
   100.55480487877399       -24.899882579728843        0.0000000000000000                1
   101.55475186607595       -24.899881421506979        0.0000000000000000                1
   102.55470081893397       -24.899870561968026        0.0000000000000000                1
   103.55466439496803       -24.899786792470191        0.0000000000000000                1
   104.55471467408846       -24.899259310339637        0.0000000000000000                1
   105.55518214554439       -24.896574532746797        0.0000000000000000                1
   106.55725067760429       -24.885664510912076        0.0000000000000000                1
   107.56410545838723       -24.850813402146624        0.0000000000000000                1
   108.58176926962152       -24.764981155752618        0.0000000000000000                1
   109.61707762876516       -24.605782504526324        0.0000000000000000                1
   35.595208201981357       -24.364403450122609        0.0000000000000000                1
   36.228977620201555       -23.997843618263623        0.0000000000000000                1
   37.420264418395668       -23.938324652935304        0.0000000000000000                1
   38.501882521512805       -23.910523835605122        0.0000000000000000                1
   39.538447512242627       -23.899229643537577        0.0000000000000000                1
   40.564404342375084       -23.891810572394146        0.0000000000000000                1
   41.608154493933576       -23.883063057137665        0.0000000000000000                1
   42.727004787783692       -23.879526546160182        0.0000000000000000                1
   43.264957651219234       -24.269041055461919        0.0000000000000000                1
   47.881560371968440       -24.233662603471199        0.0000000000000000                1
   48.451619573278656       -23.855090501593594        0.0000000000000000                1
   49.519658899336939       -23.871346231983189        0.0000000000000000                1
   50.533930353240940       -23.885591161438811        0.0000000000000000                1
   51.539757832008547       -23.894134227466292        0.0000000000000000                1
   52.542707167026997       -23.898026840867008        0.0000000000000000                1
   53.543887318617784       -23.899401445972295        0.0000000000000000                1
   54.544234952550113       -23.899782151959919        0.0000000000000000                1
   55.544305716169205       -23.899865694516016        0.0000000000000000                1
   56.544308405920297       -23.899880353566179        0.0000000000000000                1
   57.544298350800197       -23.899882427416475        0.0000000000000000                1
   58.544286960320726       -23.899882665748756        0.0000000000000000                1
   59.544277888566334       -23.899882688150242        0.0000000000000000                1
   60.544277120864436       -23.899882689882936        0.0000000000000000                1
   61.544294712773087       -23.899882689993827        0.0000000000000000                1