  TITLE = "SEM Quad mesh" 
  VARIABLES = "x","y", "z"
 ZONE I=           6 ,J=           6 , F=POINT
 -0.78579E+02  0.28970E+02  0.00000E+00
 -0.78475E+02  0.28971E+02  0.00000E+00
 -0.78202E+02  0.28973E+02  0.00000E+00
 -0.77865E+02  0.28977E+02  0.00000E+00
 -0.77592E+02  0.28979E+02  0.00000E+00
 -0.77487E+02  0.28980E+02  0.00000E+00
 -0.78549E+02  0.29058E+02  0.00000E+00
 -0.78447E+02  0.29059E+02  0.00000E+00
 -0.78180E+02  0.29062E+02  0.00000E+00
 -0.77850E+02  0.29066E+02  0.00000E+00
 -0.77583E+02  0.29069E+02  0.00000E+00
 -0.77481E+02  0.29071E+02  0.00000E+00
 -0.78471E+02  0.29288E+02  0.00000E+00
 -0.78375E+02  0.29290E+02  0.00000E+00
 -0.78123E+02  0.29295E+02  0.00000E+00
 -0.77811E+02  0.29301E+02  0.00000E+00
 -0.77559E+02  0.29305E+02  0.00000E+00
 -0.77463E+02  0.29307E+02  0.00000E+00
 -0.78375E+02  0.29574E+02  0.00000E+00
 -0.78286E+02  0.29576E+02  0.00000E+00
 -0.78052E+02  0.29583E+02  0.00000E+00
 -0.77764E+02  0.29591E+02  0.00000E+00
 -0.77530E+02  0.29597E+02  0.00000E+00
 -0.77441E+02  0.29600E+02  0.00000E+00
 -0.78297E+02  0.29804E+02  0.00000E+00
 -0.78213E+02  0.29807E+02  0.00000E+00
 -0.77995E+02  0.29816E+02  0.00000E+00
 -0.77725E+02  0.29825E+02  0.00000E+00
 -0.77507E+02  0.29833E+02  0.00000E+00
 -0.77423E+02  0.29836E+02  0.00000E+00
 -0.78267E+02  0.29893E+02  0.00000E+00
 -0.78186E+02  0.29896E+02  0.00000E+00
 -0.77973E+02  0.29904E+02  0.00000E+00
 -0.77710E+02  0.29915E+02  0.00000E+00
 -0.77498E+02  0.29924E+02  0.00000E+00
 -0.77417E+02  0.29927E+02  0.00000E+00
 ZONE I=           6 ,J=           6 , F=POINT
 -0.77487E+02  0.28980E+02  0.00000E+00
 -0.77391E+02  0.28982E+02  0.00000E+00
 -0.77140E+02  0.28986E+02  0.00000E+00
 -0.76829E+02  0.28991E+02  0.00000E+00
 -0.76577E+02  0.28996E+02  0.00000E+00
 -0.76481E+02  0.28997E+02  0.00000E+00
 -0.77481E+02  0.29071E+02  0.00000E+00
 -0.77385E+02  0.29073E+02  0.00000E+00
 -0.77135E+02  0.29078E+02  0.00000E+00
 -0.76826E+02  0.29085E+02  0.00000E+00
 -0.76577E+02  0.29091E+02  0.00000E+00
 -0.76481E+02  0.29093E+02  0.00000E+00
 -0.77463E+02  0.29307E+02  0.00000E+00
 -0.77369E+02  0.29311E+02  0.00000E+00
 -0.77124E+02  0.29320E+02  0.00000E+00
 -0.76821E+02  0.29331E+02  0.00000E+00
 -0.76576E+02  0.29341E+02  0.00000E+00
 -0.76482E+02  0.29344E+02  0.00000E+00
 -0.77441E+02  0.29600E+02  0.00000E+00
 -0.77350E+02  0.29605E+02  0.00000E+00
 -0.77110E+02  0.29619E+02  0.00000E+00
 -0.76814E+02  0.29635E+02  0.00000E+00
 -0.76575E+02  0.29649E+02  0.00000E+00
 -0.76484E+02  0.29654E+02  0.00000E+00
 -0.77423E+02  0.29836E+02  0.00000E+00
 -0.77334E+02  0.29843E+02  0.00000E+00
 -0.77099E+02  0.29860E+02  0.00000E+00
 -0.76809E+02  0.29881E+02  0.00000E+00
 -0.76574E+02  0.29898E+02  0.00000E+00
 -0.76485E+02  0.29905E+02  0.00000E+00
 -0.77417E+02  0.29927E+02  0.00000E+00
 -0.77328E+02  0.29934E+02  0.00000E+00
 -0.77095E+02  0.29952E+02  0.00000E+00
 -0.76807E+02  0.29975E+02  0.00000E+00
 -0.76574E+02  0.29994E+02  0.00000E+00
 -0.76485E+02  0.30001E+02  0.00000E+00
 ZONE I=           6 ,J=           6 , F=POINT
 -0.76481E+02  0.28997E+02  0.00000E+00
 -0.76385E+02  0.28998E+02  0.00000E+00
 -0.76135E+02  0.28999E+02  0.00000E+00
 -0.75825E+02  0.29000E+02  0.00000E+00
 -0.75574E+02  0.29000E+02  0.00000E+00
 -0.75479E+02  0.29001E+02  0.00000E+00
 -0.76481E+02  0.29093E+02  0.00000E+00
 -0.76385E+02  0.29094E+02  0.00000E+00
 -0.76135E+02  0.29095E+02  0.00000E+00
 -0.75826E+02  0.29096E+02  0.00000E+00
 -0.75575E+02  0.29097E+02  0.00000E+00
 -0.75479E+02  0.29097E+02  0.00000E+00
 -0.76482E+02  0.29344E+02  0.00000E+00
 -0.76387E+02  0.29345E+02  0.00000E+00
 -0.76136E+02  0.29346E+02  0.00000E+00
 -0.75827E+02  0.29347E+02  0.00000E+00
 -0.75577E+02  0.29348E+02  0.00000E+00
 -0.75481E+02  0.29349E+02  0.00000E+00
 -0.76484E+02  0.29654E+02  0.00000E+00
 -0.76388E+02  0.29655E+02  0.00000E+00
 -0.76138E+02  0.29656E+02  0.00000E+00
 -0.75829E+02  0.29658E+02  0.00000E+00
 -0.75579E+02  0.29659E+02  0.00000E+00
 -0.75484E+02  0.29660E+02  0.00000E+00
 -0.76485E+02  0.29905E+02  0.00000E+00
 -0.76389E+02  0.29906E+02  0.00000E+00
 -0.76139E+02  0.29907E+02  0.00000E+00
 -0.75831E+02  0.29909E+02  0.00000E+00
 -0.75581E+02  0.29911E+02  0.00000E+00
 -0.75486E+02  0.29912E+02  0.00000E+00
 -0.76485E+02  0.30001E+02  0.00000E+00
 -0.76390E+02  0.30001E+02  0.00000E+00
 -0.76140E+02  0.30003E+02  0.00000E+00
 -0.75831E+02  0.30005E+02  0.00000E+00
 -0.75582E+02  0.30007E+02  0.00000E+00
 -0.75486E+02  0.30008E+02  0.00000E+00
 ZONE I=           6 ,J=           6 , F=POINT
 -0.75479E+02  0.29001E+02  0.00000E+00
 -0.75383E+02  0.29001E+02  0.00000E+00
 -0.75133E+02  0.29001E+02  0.00000E+00
 -0.74823E+02  0.29001E+02  0.00000E+00
 -0.74573E+02  0.29000E+02  0.00000E+00
 -0.74478E+02  0.29000E+02  0.00000E+00
 -0.75479E+02  0.29097E+02  0.00000E+00
 -0.75384E+02  0.29097E+02  0.00000E+00
 -0.75133E+02  0.29097E+02  0.00000E+00
 -0.74824E+02  0.29096E+02  0.00000E+00
 -0.74573E+02  0.29096E+02  0.00000E+00
 -0.74478E+02  0.29096E+02  0.00000E+00
 -0.75481E+02  0.29349E+02  0.00000E+00
 -0.75386E+02  0.29349E+02  0.00000E+00
 -0.75135E+02  0.29348E+02  0.00000E+00
 -0.74825E+02  0.29347E+02  0.00000E+00
 -0.74574E+02  0.29347E+02  0.00000E+00
 -0.74479E+02  0.29347E+02  0.00000E+00
 -0.75484E+02  0.29660E+02  0.00000E+00
 -0.75388E+02  0.29660E+02  0.00000E+00
 -0.75137E+02  0.29659E+02  0.00000E+00
 -0.74826E+02  0.29658E+02  0.00000E+00
 -0.74575E+02  0.29657E+02  0.00000E+00
 -0.74479E+02  0.29657E+02  0.00000E+00
 -0.75486E+02  0.29912E+02  0.00000E+00
 -0.75390E+02  0.29911E+02  0.00000E+00
 -0.75138E+02  0.29910E+02  0.00000E+00
 -0.74828E+02  0.29909E+02  0.00000E+00
 -0.74576E+02  0.29908E+02  0.00000E+00
 -0.74480E+02  0.29907E+02  0.00000E+00
 -0.75486E+02  0.30008E+02  0.00000E+00
 -0.75390E+02  0.30007E+02  0.00000E+00
 -0.75139E+02  0.30006E+02  0.00000E+00
 -0.74828E+02  0.30005E+02  0.00000E+00
 -0.74576E+02  0.30004E+02  0.00000E+00
 -0.74480E+02  0.30003E+02  0.00000E+00
 ZONE I=           6 ,J=           6 , F=POINT
 -0.74478E+02  0.29000E+02  0.00000E+00
 -0.74382E+02  0.29000E+02  0.00000E+00
 -0.74132E+02  0.29000E+02  0.00000E+00
 -0.73823E+02  0.29000E+02  0.00000E+00
 -0.73573E+02  0.29000E+02  0.00000E+00
 -0.73477E+02  0.29000E+02  0.00000E+00
 -0.74478E+02  0.29096E+02  0.00000E+00
 -0.74382E+02  0.29096E+02  0.00000E+00
 -0.74132E+02  0.29096E+02  0.00000E+00
 -0.73823E+02  0.29096E+02  0.00000E+00
 -0.73573E+02  0.29096E+02  0.00000E+00
 -0.73477E+02  0.29096E+02  0.00000E+00
 -0.74479E+02  0.29347E+02  0.00000E+00
 -0.74383E+02  0.29347E+02  0.00000E+00
 -0.74133E+02  0.29346E+02  0.00000E+00
 -0.73823E+02  0.29346E+02  0.00000E+00
 -0.73573E+02  0.29346E+02  0.00000E+00
 -0.73477E+02  0.29346E+02  0.00000E+00
 -0.74479E+02  0.29657E+02  0.00000E+00
 -0.74384E+02  0.29657E+02  0.00000E+00
 -0.74133E+02  0.29656E+02  0.00000E+00
 -0.73824E+02  0.29656E+02  0.00000E+00
 -0.73573E+02  0.29655E+02  0.00000E+00
 -0.73478E+02  0.29655E+02  0.00000E+00
 -0.74480E+02  0.29907E+02  0.00000E+00
 -0.74384E+02  0.29907E+02  0.00000E+00
 -0.74134E+02  0.29907E+02  0.00000E+00
 -0.73824E+02  0.29906E+02  0.00000E+00
 -0.73573E+02  0.29905E+02  0.00000E+00
 -0.73478E+02  0.29905E+02  0.00000E+00
 -0.74480E+02  0.30003E+02  0.00000E+00
 -0.74385E+02  0.30003E+02  0.00000E+00
 -0.74134E+02  0.30002E+02  0.00000E+00
 -0.73824E+02  0.30002E+02  0.00000E+00
 -0.73574E+02  0.30001E+02  0.00000E+00
 -0.73478E+02  0.30001E+02  0.00000E+00
 ZONE I=           6 ,J=           6 , F=POINT
 -0.73477E+02  0.29000E+02  0.00000E+00
 -0.73382E+02  0.29000E+02  0.00000E+00
 -0.73132E+02  0.29000E+02  0.00000E+00
 -0.72823E+02  0.29000E+02  0.00000E+00
 -0.72573E+02  0.29000E+02  0.00000E+00
 -0.72477E+02  0.29000E+02  0.00000E+00
 -0.73477E+02  0.29096E+02  0.00000E+00
 -0.73382E+02  0.29096E+02  0.00000E+00
 -0.73132E+02  0.29096E+02  0.00000E+00
 -0.72823E+02  0.29096E+02  0.00000E+00
 -0.72573E+02  0.29096E+02  0.00000E+00
 -0.72477E+02  0.29096E+02  0.00000E+00
 -0.73477E+02  0.29346E+02  0.00000E+00
 -0.73382E+02  0.29346E+02  0.00000E+00
 -0.73132E+02  0.29346E+02  0.00000E+00
 -0.72823E+02  0.29346E+02  0.00000E+00
 -0.72573E+02  0.29346E+02  0.00000E+00
 -0.72477E+02  0.29346E+02  0.00000E+00
 -0.73478E+02  0.29655E+02  0.00000E+00
 -0.73382E+02  0.29655E+02  0.00000E+00
 -0.73132E+02  0.29655E+02  0.00000E+00
 -0.72823E+02  0.29655E+02  0.00000E+00
 -0.72573E+02  0.29655E+02  0.00000E+00
 -0.72477E+02  0.29655E+02  0.00000E+00
 -0.73478E+02  0.29905E+02  0.00000E+00
 -0.73382E+02  0.29905E+02  0.00000E+00
 -0.73132E+02  0.29905E+02  0.00000E+00
 -0.72823E+02  0.29905E+02  0.00000E+00
 -0.72573E+02  0.29905E+02  0.00000E+00
 -0.72477E+02  0.29905E+02  0.00000E+00
 -0.73478E+02  0.30001E+02  0.00000E+00
 -0.73382E+02  0.30001E+02  0.00000E+00
 -0.73132E+02  0.30001E+02  0.00000E+00
 -0.72823E+02  0.30000E+02  0.00000E+00
 -0.72573E+02  0.30000E+02  0.00000E+00
 -0.72477E+02  0.30000E+02  0.00000E+00
 ZONE I=           6 ,J=           6 , F=POINT
 -0.72477E+02  0.29000E+02  0.00000E+00
 -0.72382E+02  0.29000E+02  0.00000E+00
 -0.72132E+02  0.29000E+02  0.00000E+00
 -0.71823E+02  0.29000E+02  0.00000E+00
 -0.71573E+02  0.29000E+02  0.00000E+00
 -0.71477E+02  0.29000E+02  0.00000E+00
 -0.72477E+02  0.29096E+02  0.00000E+00
 -0.72382E+02  0.29096E+02  0.00000E+00
 -0.72132E+02  0.29096E+02  0.00000E+00
 -0.71823E+02  0.29095E+02  0.00000E+00
 -0.71573E+02  0.29095E+02  0.00000E+00
 -0.71477E+02  0.29095E+02  0.00000E+00
 -0.72477E+02  0.29346E+02  0.00000E+00
 -0.72382E+02  0.29346E+02  0.00000E+00
 -0.72132E+02  0.29346E+02  0.00000E+00
 -0.71823E+02  0.29346E+02  0.00000E+00
 -0.71573E+02  0.29345E+02  0.00000E+00
 -0.71477E+02  0.29345E+02  0.00000E+00
 -0.72477E+02  0.29655E+02  0.00000E+00
 -0.72382E+02  0.29655E+02  0.00000E+00
 -0.72132E+02  0.29655E+02  0.00000E+00
 -0.71823E+02  0.29655E+02  0.00000E+00
 -0.71573E+02  0.29655E+02  0.00000E+00
 -0.71477E+02  0.29655E+02  0.00000E+00
 -0.72477E+02  0.29905E+02  0.00000E+00
 -0.72382E+02  0.29905E+02  0.00000E+00
 -0.72132E+02  0.29905E+02  0.00000E+00
 -0.71823E+02  0.29905E+02  0.00000E+00
 -0.71573E+02  0.29905E+02  0.00000E+00
 -0.71477E+02  0.29905E+02  0.00000E+00
 -0.72477E+02  0.30000E+02  0.00000E+00
 -0.72382E+02  0.30000E+02  0.00000E+00
 -0.72132E+02  0.30000E+02  0.00000E+00
 -0.71823E+02  0.30000E+02  0.00000E+00
 -0.71573E+02  0.30000E+02  0.00000E+00
 -0.71477E+02  0.30000E+02  0.00000E+00
 ZONE I=           6 ,J=           6 , F=POINT
 -0.71477E+02  0.29000E+02  0.00000E+00
 -0.71382E+02  0.29000E+02  0.00000E+00
 -0.71132E+02  0.29000E+02  0.00000E+00
 -0.70822E+02  0.29000E+02  0.00000E+00
 -0.70572E+02  0.29000E+02  0.00000E+00
 -0.70477E+02  0.29000E+02  0.00000E+00
 -0.71477E+02  0.29095E+02  0.00000E+00
 -0.71382E+02  0.29095E+02  0.00000E+00
 -0.71132E+02  0.29095E+02  0.00000E+00
 -0.70822E+02  0.29095E+02  0.00000E+00
 -0.70572E+02  0.29095E+02  0.00000E+00
 -0.70477E+02  0.29095E+02  0.00000E+00
 -0.71477E+02  0.29345E+02  0.00000E+00
 -0.71382E+02  0.29345E+02  0.00000E+00
 -0.71132E+02  0.29345E+02  0.00000E+00
 -0.70822E+02  0.29345E+02  0.00000E+00
 -0.70572E+02  0.29345E+02  0.00000E+00
 -0.70477E+02  0.29345E+02  0.00000E+00
 -0.71477E+02  0.29655E+02  0.00000E+00
 -0.71382E+02  0.29655E+02  0.00000E+00
 -0.71132E+02  0.29655E+02  0.00000E+00
 -0.70822E+02  0.29655E+02  0.00000E+00
 -0.70572E+02  0.29655E+02  0.00000E+00
 -0.70477E+02  0.29655E+02  0.00000E+00
 -0.71477E+02  0.29905E+02  0.00000E+00
 -0.71382E+02  0.29905E+02  0.00000E+00
 -0.71132E+02  0.29905E+02  0.00000E+00
 -0.70823E+02  0.29905E+02  0.00000E+00
 -0.70573E+02  0.29905E+02  0.00000E+00
 -0.70477E+02  0.29905E+02  0.00000E+00
 -0.71477E+02  0.30000E+02  0.00000E+00
 -0.71382E+02  0.30000E+02  0.00000E+00
 -0.71132E+02  0.30000E+02  0.00000E+00
 -0.70823E+02  0.30000E+02  0.00000E+00
 -0.70573E+02  0.30000E+02  0.00000E+00
 -0.70477E+02  0.30000E+02  0.00000E+00
 ZONE I=           6 ,J=           6 , F=POINT
 -0.70477E+02  0.29000E+02  0.00000E+00
 -0.70381E+02  0.29000E+02  0.00000E+00
 -0.70131E+02  0.29000E+02  0.00000E+00
 -0.69821E+02  0.29000E+02  0.00000E+00
 -0.69571E+02  0.29000E+02  0.00000E+00
 -0.69475E+02  0.29000E+02  0.00000E+00
 -0.70477E+02  0.29095E+02  0.00000E+00
 -0.70381E+02  0.29095E+02  0.00000E+00
 -0.70131E+02  0.29095E+02  0.00000E+00
 -0.69821E+02  0.29095E+02  0.00000E+00
 -0.69571E+02  0.29095E+02  0.00000E+00
 -0.69475E+02  0.29095E+02  0.00000E+00
 -0.70477E+02  0.29345E+02  0.00000E+00
 -0.70381E+02  0.29345E+02  0.00000E+00
 -0.70131E+02  0.29345E+02  0.00000E+00
 -0.69822E+02  0.29345E+02  0.00000E+00
 -0.69571E+02  0.29345E+02  0.00000E+00
 -0.69476E+02  0.29345E+02  0.00000E+00
 -0.70477E+02  0.29655E+02  0.00000E+00
 -0.70381E+02  0.29655E+02  0.00000E+00
 -0.70131E+02  0.29655E+02  0.00000E+00
 -0.69822E+02  0.29655E+02  0.00000E+00
 -0.69572E+02  0.29655E+02  0.00000E+00
 -0.69476E+02  0.29655E+02  0.00000E+00
 -0.70477E+02  0.29905E+02  0.00000E+00
 -0.70381E+02  0.29905E+02  0.00000E+00
 -0.70131E+02  0.29905E+02  0.00000E+00
 -0.69822E+02  0.29905E+02  0.00000E+00
 -0.69572E+02  0.29905E+02  0.00000E+00
 -0.69476E+02  0.29905E+02  0.00000E+00
 -0.70477E+02  0.30000E+02  0.00000E+00
 -0.70381E+02  0.30000E+02  0.00000E+00
 -0.70131E+02  0.30000E+02  0.00000E+00
 -0.69822E+02  0.30000E+02  0.00000E+00
 -0.69572E+02  0.30000E+02  0.00000E+00
 -0.69477E+02  0.30000E+02  0.00000E+00
 ZONE I=           6 ,J=           6 , F=POINT
 -0.69475E+02  0.29000E+02  0.00000E+00
 -0.69379E+02  0.29000E+02  0.00000E+00
 -0.69126E+02  0.29000E+02  0.00000E+00
 -0.68813E+02  0.29000E+02  0.00000E+00
 -0.68560E+02  0.29000E+02  0.00000E+00
 -0.68464E+02  0.29000E+02  0.00000E+00
 -0.69475E+02  0.29095E+02  0.00000E+00
 -0.69379E+02  0.29095E+02  0.00000E+00
 -0.69126E+02  0.29095E+02  0.00000E+00
 -0.68814E+02  0.29095E+02  0.00000E+00
 -0.68561E+02  0.29095E+02  0.00000E+00
 -0.68465E+02  0.29095E+02  0.00000E+00
 -0.69476E+02  0.29345E+02  0.00000E+00
 -0.69379E+02  0.29345E+02  0.00000E+00
 -0.69127E+02  0.29345E+02  0.00000E+00
 -0.68816E+02  0.29345E+02  0.00000E+00
 -0.68563E+02  0.29345E+02  0.00000E+00
 -0.68467E+02  0.29345E+02  0.00000E+00
 -0.69476E+02  0.29655E+02  0.00000E+00
 -0.69380E+02  0.29655E+02  0.00000E+00
 -0.69129E+02  0.29655E+02  0.00000E+00
 -0.68818E+02  0.29655E+02  0.00000E+00
 -0.68566E+02  0.29655E+02  0.00000E+00
 -0.68470E+02  0.29655E+02  0.00000E+00
 -0.69476E+02  0.29905E+02  0.00000E+00
 -0.69381E+02  0.29905E+02  0.00000E+00
 -0.69130E+02  0.29905E+02  0.00000E+00
 -0.68819E+02  0.29905E+02  0.00000E+00
 -0.68568E+02  0.29905E+02  0.00000E+00
 -0.68472E+02  0.29905E+02  0.00000E+00
 -0.69477E+02  0.30000E+02  0.00000E+00
 -0.69381E+02  0.30000E+02  0.00000E+00
 -0.69130E+02  0.30000E+02  0.00000E+00
 -0.68820E+02  0.30000E+02  0.00000E+00
 -0.68569E+02  0.30000E+02  0.00000E+00
 -0.68473E+02  0.30000E+02  0.00000E+00
 ZONE I=           6 ,J=           6 , F=POINT
 -0.68464E+02  0.29000E+02  0.00000E+00
 -0.68362E+02  0.29000E+02  0.00000E+00
 -0.68097E+02  0.28999E+02  0.00000E+00
 -0.67769E+02  0.28999E+02  0.00000E+00
 -0.67504E+02  0.28999E+02  0.00000E+00
 -0.67403E+02  0.28999E+02  0.00000E+00
 -0.68465E+02  0.29095E+02  0.00000E+00
 -0.68364E+02  0.29095E+02  0.00000E+00
 -0.68100E+02  0.29095E+02  0.00000E+00
 -0.67773E+02  0.29095E+02  0.00000E+00
 -0.67509E+02  0.29095E+02  0.00000E+00
 -0.67408E+02  0.29095E+02  0.00000E+00
 -0.68467E+02  0.29345E+02  0.00000E+00
 -0.68367E+02  0.29345E+02  0.00000E+00
 -0.68106E+02  0.29345E+02  0.00000E+00
 -0.67783E+02  0.29346E+02  0.00000E+00
 -0.67522E+02  0.29346E+02  0.00000E+00
 -0.67423E+02  0.29346E+02  0.00000E+00
 -0.68470E+02  0.29655E+02  0.00000E+00
 -0.68372E+02  0.29655E+02  0.00000E+00
 -0.68114E+02  0.29655E+02  0.00000E+00
 -0.67796E+02  0.29655E+02  0.00000E+00
 -0.67539E+02  0.29656E+02  0.00000E+00
 -0.67441E+02  0.29656E+02  0.00000E+00
 -0.68472E+02  0.29905E+02  0.00000E+00
 -0.68375E+02  0.29905E+02  0.00000E+00
 -0.68121E+02  0.29905E+02  0.00000E+00
 -0.67807E+02  0.29906E+02  0.00000E+00
 -0.67552E+02  0.29907E+02  0.00000E+00
 -0.67455E+02  0.29907E+02  0.00000E+00
 -0.68473E+02  0.30000E+02  0.00000E+00
 -0.68377E+02  0.30001E+02  0.00000E+00
 -0.68123E+02  0.30001E+02  0.00000E+00
 -0.67810E+02  0.30002E+02  0.00000E+00
 -0.67557E+02  0.30003E+02  0.00000E+00
 -0.67461E+02  0.30003E+02  0.00000E+00
 ZONE I=           6 ,J=           6 , F=POINT
 -0.67403E+02  0.28999E+02  0.00000E+00
 -0.67283E+02  0.28999E+02  0.00000E+00
 -0.66971E+02  0.29000E+02  0.00000E+00
 -0.66585E+02  0.29001E+02  0.00000E+00
 -0.66272E+02  0.29001E+02  0.00000E+00
 -0.66153E+02  0.29002E+02  0.00000E+00
 -0.67408E+02  0.29095E+02  0.00000E+00
 -0.67291E+02  0.29095E+02  0.00000E+00
 -0.66984E+02  0.29096E+02  0.00000E+00
 -0.66605E+02  0.29097E+02  0.00000E+00
 -0.66299E+02  0.29098E+02  0.00000E+00
 -0.66182E+02  0.29099E+02  0.00000E+00
 -0.67423E+02  0.29346E+02  0.00000E+00
 -0.67311E+02  0.29346E+02  0.00000E+00
 -0.67020E+02  0.29348E+02  0.00000E+00
 -0.66660E+02  0.29351E+02  0.00000E+00
 -0.66369E+02  0.29353E+02  0.00000E+00
 -0.66257E+02  0.29353E+02  0.00000E+00
 -0.67441E+02  0.29656E+02  0.00000E+00
 -0.67336E+02  0.29657E+02  0.00000E+00
 -0.67064E+02  0.29660E+02  0.00000E+00
 -0.66727E+02  0.29664E+02  0.00000E+00
 -0.66455E+02  0.29667E+02  0.00000E+00
 -0.66351E+02  0.29668E+02  0.00000E+00
 -0.67455E+02  0.29907E+02  0.00000E+00
 -0.67357E+02  0.29908E+02  0.00000E+00
 -0.67100E+02  0.29912E+02  0.00000E+00
 -0.66782E+02  0.29917E+02  0.00000E+00
 -0.66525E+02  0.29921E+02  0.00000E+00
 -0.66426E+02  0.29923E+02  0.00000E+00
 -0.67461E+02  0.30003E+02  0.00000E+00
 -0.67365E+02  0.30004E+02  0.00000E+00
 -0.67113E+02  0.30009E+02  0.00000E+00
 -0.66803E+02  0.30014E+02  0.00000E+00
 -0.66551E+02  0.30018E+02  0.00000E+00
 -0.66455E+02  0.30020E+02  0.00000E+00
 ZONE I=           6 ,J=           6 , F=POINT
 -0.66153E+02  0.29002E+02  0.00000E+00
 -0.66102E+02  0.29041E+02  0.00000E+00
 -0.65970E+02  0.29144E+02  0.00000E+00
 -0.65806E+02  0.29271E+02  0.00000E+00
 -0.65673E+02  0.29374E+02  0.00000E+00
 -0.65623E+02  0.29413E+02  0.00000E+00
 -0.66182E+02  0.29099E+02  0.00000E+00
 -0.66129E+02  0.29135E+02  0.00000E+00
 -0.65991E+02  0.29230E+02  0.00000E+00
 -0.65820E+02  0.29348E+02  0.00000E+00
 -0.65681E+02  0.29443E+02  0.00000E+00
 -0.65628E+02  0.29479E+02  0.00000E+00
 -0.66257E+02  0.29353E+02  0.00000E+00
 -0.66199E+02  0.29382E+02  0.00000E+00
 -0.66045E+02  0.29456E+02  0.00000E+00
 -0.65856E+02  0.29549E+02  0.00000E+00
 -0.65702E+02  0.29623E+02  0.00000E+00
 -0.65643E+02  0.29652E+02  0.00000E+00
 -0.66351E+02  0.29668E+02  0.00000E+00
 -0.66285E+02  0.29687E+02  0.00000E+00
 -0.66113E+02  0.29736E+02  0.00000E+00
 -0.65900E+02  0.29797E+02  0.00000E+00
 -0.65728E+02  0.29846E+02  0.00000E+00
 -0.65662E+02  0.29865E+02  0.00000E+00
 -0.66426E+02  0.29923E+02  0.00000E+00
 -0.66355E+02  0.29934E+02  0.00000E+00
 -0.66168E+02  0.29962E+02  0.00000E+00
 -0.65936E+02  0.29998E+02  0.00000E+00
 -0.65749E+02  0.30026E+02  0.00000E+00
 -0.65677E+02  0.30037E+02  0.00000E+00
 -0.66455E+02  0.30020E+02  0.00000E+00
 -0.66382E+02  0.30028E+02  0.00000E+00
 -0.66188E+02  0.30049E+02  0.00000E+00
 -0.65950E+02  0.30074E+02  0.00000E+00
 -0.65756E+02  0.30095E+02  0.00000E+00
 -0.65683E+02  0.30103E+02  0.00000E+00
 ZONE I=           6 ,J=           6 , F=POINT
 -0.78267E+02  0.29893E+02  0.00000E+00
 -0.78186E+02  0.29896E+02  0.00000E+00
 -0.77973E+02  0.29904E+02  0.00000E+00
 -0.77710E+02  0.29915E+02  0.00000E+00
 -0.77498E+02  0.29924E+02  0.00000E+00
 -0.77417E+02  0.29927E+02  0.00000E+00
 -0.78255E+02  0.29965E+02  0.00000E+00
 -0.78174E+02  0.29969E+02  0.00000E+00
 -0.77964E+02  0.29980E+02  0.00000E+00
 -0.77705E+02  0.29993E+02  0.00000E+00
 -0.77495E+02  0.30004E+02  0.00000E+00
 -0.77415E+02  0.30008E+02  0.00000E+00
 -0.78222E+02  0.30155E+02  0.00000E+00
 -0.78145E+02  0.30162E+02  0.00000E+00
 -0.77942E+02  0.30178E+02  0.00000E+00
 -0.77691E+02  0.30198E+02  0.00000E+00
 -0.77488E+02  0.30214E+02  0.00000E+00
 -0.77410E+02  0.30221E+02  0.00000E+00
 -0.78182E+02  0.30390E+02  0.00000E+00
 -0.78108E+02  0.30399E+02  0.00000E+00
 -0.77913E+02  0.30422E+02  0.00000E+00
 -0.77673E+02  0.30451E+02  0.00000E+00
 -0.77479E+02  0.30474E+02  0.00000E+00
 -0.77405E+02  0.30483E+02  0.00000E+00
 -0.78150E+02  0.30580E+02  0.00000E+00
 -0.78078E+02  0.30592E+02  0.00000E+00
 -0.77891E+02  0.30620E+02  0.00000E+00
 -0.77659E+02  0.30656E+02  0.00000E+00
 -0.77471E+02  0.30685E+02  0.00000E+00
 -0.77400E+02  0.30696E+02  0.00000E+00
 -0.78137E+02  0.30653E+02  0.00000E+00
 -0.78067E+02  0.30665E+02  0.00000E+00
 -0.77882E+02  0.30696E+02  0.00000E+00
 -0.77653E+02  0.30734E+02  0.00000E+00
 -0.77469E+02  0.30765E+02  0.00000E+00
 -0.77398E+02  0.30777E+02  0.00000E+00
 ZONE I=           6 ,J=           6 , F=POINT
 -0.77417E+02  0.29927E+02  0.00000E+00
 -0.77328E+02  0.29934E+02  0.00000E+00
 -0.77095E+02  0.29952E+02  0.00000E+00
 -0.76807E+02  0.29975E+02  0.00000E+00
 -0.76574E+02  0.29994E+02  0.00000E+00
 -0.76485E+02  0.30001E+02  0.00000E+00
 -0.77415E+02  0.30008E+02  0.00000E+00
 -0.77327E+02  0.30017E+02  0.00000E+00
 -0.77096E+02  0.30040E+02  0.00000E+00
 -0.76811E+02  0.30069E+02  0.00000E+00
 -0.76580E+02  0.30092E+02  0.00000E+00
 -0.76492E+02  0.30101E+02  0.00000E+00
 -0.77410E+02  0.30221E+02  0.00000E+00
 -0.77324E+02  0.30234E+02  0.00000E+00
 -0.77099E+02  0.30270E+02  0.00000E+00
 -0.76820E+02  0.30314E+02  0.00000E+00
 -0.76595E+02  0.30349E+02  0.00000E+00
 -0.76509E+02  0.30363E+02  0.00000E+00
 -0.77405E+02  0.30483E+02  0.00000E+00
 -0.77321E+02  0.30503E+02  0.00000E+00
 -0.77103E+02  0.30553E+02  0.00000E+00
 -0.76832E+02  0.30616E+02  0.00000E+00
 -0.76614E+02  0.30667E+02  0.00000E+00
 -0.76530E+02  0.30686E+02  0.00000E+00
 -0.77400E+02  0.30696E+02  0.00000E+00
 -0.77319E+02  0.30720E+02  0.00000E+00
 -0.77105E+02  0.30783E+02  0.00000E+00
 -0.76842E+02  0.30861E+02  0.00000E+00
 -0.76629E+02  0.30924E+02  0.00000E+00
 -0.76548E+02  0.30948E+02  0.00000E+00
 -0.77398E+02  0.30777E+02  0.00000E+00
 -0.77318E+02  0.30803E+02  0.00000E+00
 -0.77107E+02  0.30871E+02  0.00000E+00
 -0.76846E+02  0.30954E+02  0.00000E+00
 -0.76635E+02  0.31022E+02  0.00000E+00
 -0.76554E+02  0.31048E+02  0.00000E+00
 ZONE I=           6 ,J=           6 , F=POINT
 -0.76485E+02  0.30001E+02  0.00000E+00
 -0.76390E+02  0.30001E+02  0.00000E+00
 -0.76140E+02  0.30003E+02  0.00000E+00
 -0.75831E+02  0.30005E+02  0.00000E+00
 -0.75582E+02  0.30007E+02  0.00000E+00
 -0.75486E+02  0.30008E+02  0.00000E+00
 -0.76492E+02  0.30101E+02  0.00000E+00
 -0.76396E+02  0.30101E+02  0.00000E+00
 -0.76145E+02  0.30103E+02  0.00000E+00
 -0.75836E+02  0.30104E+02  0.00000E+00
 -0.75585E+02  0.30105E+02  0.00000E+00
 -0.75489E+02  0.30106E+02  0.00000E+00
 -0.76509E+02  0.30363E+02  0.00000E+00
 -0.76412E+02  0.30363E+02  0.00000E+00
 -0.76159E+02  0.30362E+02  0.00000E+00
 -0.75846E+02  0.30362E+02  0.00000E+00
 -0.75593E+02  0.30362E+02  0.00000E+00
 -0.75497E+02  0.30362E+02  0.00000E+00
 -0.76530E+02  0.30686E+02  0.00000E+00
 -0.76433E+02  0.30686E+02  0.00000E+00
 -0.76176E+02  0.30684E+02  0.00000E+00
 -0.75860E+02  0.30682E+02  0.00000E+00
 -0.75604E+02  0.30680E+02  0.00000E+00
 -0.75506E+02  0.30679E+02  0.00000E+00
 -0.76548E+02  0.30948E+02  0.00000E+00
 -0.76449E+02  0.30947E+02  0.00000E+00
 -0.76190E+02  0.30944E+02  0.00000E+00
 -0.75871E+02  0.30940E+02  0.00000E+00
 -0.75612E+02  0.30937E+02  0.00000E+00
 -0.75513E+02  0.30936E+02  0.00000E+00
 -0.76554E+02  0.31048E+02  0.00000E+00
 -0.76455E+02  0.31047E+02  0.00000E+00
 -0.76196E+02  0.31043E+02  0.00000E+00
 -0.75875E+02  0.31039E+02  0.00000E+00
 -0.75615E+02  0.31035E+02  0.00000E+00
 -0.75516E+02  0.31034E+02  0.00000E+00
 ZONE I=           6 ,J=           6 , F=POINT
 -0.75486E+02  0.30008E+02  0.00000E+00
 -0.75390E+02  0.30007E+02  0.00000E+00
 -0.75139E+02  0.30006E+02  0.00000E+00
 -0.74828E+02  0.30005E+02  0.00000E+00
 -0.74576E+02  0.30004E+02  0.00000E+00
 -0.74480E+02  0.30003E+02  0.00000E+00
 -0.75489E+02  0.30106E+02  0.00000E+00
 -0.75393E+02  0.30105E+02  0.00000E+00
 -0.75141E+02  0.30104E+02  0.00000E+00
 -0.74830E+02  0.30102E+02  0.00000E+00
 -0.74578E+02  0.30100E+02  0.00000E+00
 -0.74482E+02  0.30100E+02  0.00000E+00
 -0.75497E+02  0.30362E+02  0.00000E+00
 -0.75400E+02  0.30361E+02  0.00000E+00
 -0.75147E+02  0.30359E+02  0.00000E+00
 -0.74834E+02  0.30356E+02  0.00000E+00
 -0.74581E+02  0.30353E+02  0.00000E+00
 -0.74484E+02  0.30353E+02  0.00000E+00
 -0.75506E+02  0.30679E+02  0.00000E+00
 -0.75409E+02  0.30678E+02  0.00000E+00
 -0.75154E+02  0.30674E+02  0.00000E+00
 -0.74840E+02  0.30670E+02  0.00000E+00
 -0.74585E+02  0.30666E+02  0.00000E+00
 -0.74488E+02  0.30665E+02  0.00000E+00
 -0.75513E+02  0.30936E+02  0.00000E+00
 -0.75416E+02  0.30934E+02  0.00000E+00
 -0.75160E+02  0.30930E+02  0.00000E+00
 -0.74844E+02  0.30924E+02  0.00000E+00
 -0.74588E+02  0.30919E+02  0.00000E+00
 -0.74491E+02  0.30918E+02  0.00000E+00
 -0.75516E+02  0.31034E+02  0.00000E+00
 -0.75418E+02  0.31032E+02  0.00000E+00
 -0.75162E+02  0.31027E+02  0.00000E+00
 -0.74846E+02  0.31021E+02  0.00000E+00
 -0.74590E+02  0.31016E+02  0.00000E+00
 -0.74492E+02  0.31014E+02  0.00000E+00
 ZONE I=           6 ,J=           6 , F=POINT
 -0.74480E+02  0.30003E+02  0.00000E+00
 -0.74385E+02  0.30003E+02  0.00000E+00
 -0.74134E+02  0.30002E+02  0.00000E+00
 -0.73824E+02  0.30002E+02  0.00000E+00
 -0.73574E+02  0.30001E+02  0.00000E+00
 -0.73478E+02  0.30001E+02  0.00000E+00
 -0.74482E+02  0.30100E+02  0.00000E+00
 -0.74386E+02  0.30099E+02  0.00000E+00
 -0.74135E+02  0.30099E+02  0.00000E+00
 -0.73825E+02  0.30098E+02  0.00000E+00
 -0.73574E+02  0.30097E+02  0.00000E+00
 -0.73478E+02  0.30097E+02  0.00000E+00
 -0.74484E+02  0.30353E+02  0.00000E+00
 -0.74388E+02  0.30352E+02  0.00000E+00
 -0.74137E+02  0.30351E+02  0.00000E+00
 -0.73826E+02  0.30349E+02  0.00000E+00
 -0.73575E+02  0.30348E+02  0.00000E+00
 -0.73479E+02  0.30347E+02  0.00000E+00
 -0.74488E+02  0.30665E+02  0.00000E+00
 -0.74392E+02  0.30664E+02  0.00000E+00
 -0.74140E+02  0.30662E+02  0.00000E+00
 -0.73828E+02  0.30660E+02  0.00000E+00
 -0.73576E+02  0.30658E+02  0.00000E+00
 -0.73480E+02  0.30657E+02  0.00000E+00
 -0.74491E+02  0.30918E+02  0.00000E+00
 -0.74394E+02  0.30917E+02  0.00000E+00
 -0.74142E+02  0.30914E+02  0.00000E+00
 -0.73830E+02  0.30912E+02  0.00000E+00
 -0.73577E+02  0.30909E+02  0.00000E+00
 -0.73481E+02  0.30908E+02  0.00000E+00
 -0.74492E+02  0.31014E+02  0.00000E+00
 -0.74395E+02  0.31013E+02  0.00000E+00
 -0.74143E+02  0.31011E+02  0.00000E+00
 -0.73830E+02  0.31008E+02  0.00000E+00
 -0.73578E+02  0.31005E+02  0.00000E+00
 -0.73481E+02  0.31004E+02  0.00000E+00
 ZONE I=           6 ,J=           6 , F=POINT
 -0.73478E+02  0.30001E+02  0.00000E+00
 -0.73382E+02  0.30001E+02  0.00000E+00
 -0.73132E+02  0.30001E+02  0.00000E+00
 -0.72823E+02  0.30000E+02  0.00000E+00
 -0.72573E+02  0.30000E+02  0.00000E+00
 -0.72477E+02  0.30000E+02  0.00000E+00
 -0.73478E+02  0.30097E+02  0.00000E+00
 -0.73383E+02  0.30096E+02  0.00000E+00
 -0.73132E+02  0.30096E+02  0.00000E+00
 -0.72823E+02  0.30096E+02  0.00000E+00
 -0.72573E+02  0.30096E+02  0.00000E+00
 -0.72477E+02  0.30096E+02  0.00000E+00
 -0.73479E+02  0.30347E+02  0.00000E+00
 -0.73383E+02  0.30347E+02  0.00000E+00
 -0.73133E+02  0.30347E+02  0.00000E+00
 -0.72823E+02  0.30346E+02  0.00000E+00
 -0.72573E+02  0.30346E+02  0.00000E+00
 -0.72477E+02  0.30346E+02  0.00000E+00
 -0.73480E+02  0.30657E+02  0.00000E+00
 -0.73384E+02  0.30657E+02  0.00000E+00
 -0.73134E+02  0.30657E+02  0.00000E+00
 -0.72824E+02  0.30656E+02  0.00000E+00
 -0.72573E+02  0.30655E+02  0.00000E+00
 -0.72478E+02  0.30655E+02  0.00000E+00
 -0.73481E+02  0.30908E+02  0.00000E+00
 -0.73385E+02  0.30908E+02  0.00000E+00
 -0.73134E+02  0.30907E+02  0.00000E+00
 -0.72824E+02  0.30906E+02  0.00000E+00
 -0.72574E+02  0.30906E+02  0.00000E+00
 -0.72478E+02  0.30905E+02  0.00000E+00
 -0.73481E+02  0.31004E+02  0.00000E+00
 -0.73385E+02  0.31004E+02  0.00000E+00
 -0.73135E+02  0.31003E+02  0.00000E+00
 -0.72824E+02  0.31002E+02  0.00000E+00
 -0.72574E+02  0.31001E+02  0.00000E+00
 -0.72478E+02  0.31001E+02  0.00000E+00
 ZONE I=           6 ,J=           6 , F=POINT
 -0.72477E+02  0.30000E+02  0.00000E+00
 -0.72382E+02  0.30000E+02  0.00000E+00
 -0.72132E+02  0.30000E+02  0.00000E+00
 -0.71823E+02  0.30000E+02  0.00000E+00
 -0.71573E+02  0.30000E+02  0.00000E+00
 -0.71477E+02  0.30000E+02  0.00000E+00
 -0.72477E+02  0.30096E+02  0.00000E+00
 -0.72382E+02  0.30096E+02  0.00000E+00
 -0.72132E+02  0.30096E+02  0.00000E+00
 -0.71823E+02  0.30096E+02  0.00000E+00
 -0.71573E+02  0.30096E+02  0.00000E+00
 -0.71477E+02  0.30096E+02  0.00000E+00
 -0.72477E+02  0.30346E+02  0.00000E+00
 -0.72382E+02  0.30346E+02  0.00000E+00
 -0.72132E+02  0.30346E+02  0.00000E+00
 -0.71823E+02  0.30346E+02  0.00000E+00
 -0.71573E+02  0.30346E+02  0.00000E+00
 -0.71477E+02  0.30346E+02  0.00000E+00
 -0.72478E+02  0.30655E+02  0.00000E+00
 -0.72382E+02  0.30655E+02  0.00000E+00
 -0.72132E+02  0.30655E+02  0.00000E+00
 -0.71823E+02  0.30655E+02  0.00000E+00
 -0.71573E+02  0.30655E+02  0.00000E+00
 -0.71477E+02  0.30655E+02  0.00000E+00
 -0.72478E+02  0.30905E+02  0.00000E+00
 -0.72382E+02  0.30905E+02  0.00000E+00
 -0.72132E+02  0.30905E+02  0.00000E+00
 -0.71823E+02  0.30905E+02  0.00000E+00
 -0.71573E+02  0.30905E+02  0.00000E+00
 -0.71477E+02  0.30905E+02  0.00000E+00
 -0.72478E+02  0.31001E+02  0.00000E+00
 -0.72382E+02  0.31001E+02  0.00000E+00
 -0.72132E+02  0.31001E+02  0.00000E+00
 -0.71823E+02  0.31000E+02  0.00000E+00
 -0.71573E+02  0.31000E+02  0.00000E+00
 -0.71477E+02  0.31000E+02  0.00000E+00
 ZONE I=           6 ,J=           6 , F=POINT
 -0.71477E+02  0.30000E+02  0.00000E+00
 -0.71382E+02  0.30000E+02  0.00000E+00
 -0.71132E+02  0.30000E+02  0.00000E+00