 VARIABLES = "X", "Y", "Z"
 ZONE F=FEPOINT, ET=QUADRILATERAL, N=        1312 E=        1139
  -80.511180666712562        28.967158506829644        0.0000000000000000     
  -79.396204104310939        28.936895762019709        0.0000000000000000     
  -78.579291975729362        28.969554729513288        0.0000000000000000     
  -77.487487885883851        28.980181650681732        0.0000000000000000     
  -76.480669083209875        28.997454963886550        0.0000000000000000     
  -75.478710806813638        29.000758111609340        0.0000000000000000     
  -74.477511356249181        29.000366755202407        0.0000000000000000     
  -73.477133021692481        29.000071591331295        0.0000000000000000     
  -72.477063707537155        29.000008229277931        0.0000000000000000     
  -71.477046288702837        29.000000886062882        0.0000000000000000     
  -70.476897582728412        28.999998534928910        0.0000000000000000     
  -69.475334788258465        28.999953553352746        0.0000000000000000     
  -68.463784390667939        28.999625587703424        0.0000000000000000     
  -67.402623733949440        28.998840432706018        0.0000000000000000     
  -66.152901929809232        29.001601837693276        0.0000000000000000     
  -65.622706095315976        29.413348513668250        0.0000000000000000     
  -80.463600955141914        30.012324074789984        0.0000000000000000     
  -79.450313511021363        29.995759264897696        0.0000000000000000     
  -78.266998573119494        29.892584057531646        0.0000000000000000     
  -77.416672438720596        29.926853995138774        0.0000000000000000     
  -76.485040900273674        30.000780614497149        0.0000000000000000     
  -75.486388133493804        30.007813012529262        0.0000000000000000     
  -74.480430508474512        30.003180391718900        0.0000000000000000     
  -73.477792705423767        30.000723943628277        0.0000000000000000     
  -72.477159675033406        30.000104057547798        0.0000000000000000     
  -71.477063153572615        30.000010168009204        0.0000000000000000     
  -70.477014322793963        30.000005436286088        0.0000000000000000     
  -69.476553196505563        30.000038849836525        0.0000000000000000     
  -68.473252044877526        30.000312323829004        0.0000000000000000     
  -67.460558847244144        30.002735824372085        0.0000000000000000     
  -66.455343269803166        30.019849044535221        0.0000000000000000     
  -65.682676009361941        30.102888169724057        0.0000000000000000     
  -80.520592133587783        31.037612848422668        0.0000000000000000     
  -79.410635063086431        31.080045330168279        0.0000000000000000     
  -78.770218629475636        31.291735483203855        0.0000000000000000     
  -77.398100717501549        30.777040613112192        0.0000000000000000     
  -76.554366166654120        31.047953542295346        0.0000000000000000     
  -75.516067428592564        31.033987290802962        0.0000000000000000     
  -74.491956794122004        31.014271500405656        0.0000000000000000     
  -73.481152524546346        31.004089632636148        0.0000000000000000     
  -72.477807117929558        31.000764824358079        0.0000000000000000     
  -71.477146316164749        31.000092920953286        0.0000000000000000     
  -70.477064233121567        31.000009236297359        0.0000000000000000     
  -69.477082693212381        31.000020432147956        0.0000000000000000     
  -68.477553162122319        31.000172530904475        0.0000000000000000     
  -67.483243511382582        31.001229875542485        0.0000000000000000     
  -66.524742529102326        31.006676271176243        0.0000000000000000     
  -65.697218359266429        31.021414848840127        0.0000000000000000     
  -80.539016165607123        32.009506192085603        0.0000000000000000     
  -79.525875545621986        32.050118866196357        0.0000000000000000     
  -78.557120293737071        31.924232685800337        0.0000000000000000     
  -77.483394978407503        31.974286278580180        0.0000000000000000     
  -76.384352695203930        31.901586747220534        0.0000000000000000     
  -75.557419782736417        32.079040845898653        0.0000000000000000     
  -74.517255578510969        32.040161561077220        0.0000000000000000     
  -73.492023123802440        32.015488699772952        0.0000000000000000     
  -72.480606081887942        32.003748327660603        0.0000000000000000     
  -71.477599451798980        32.000577357131910        0.0000000000000000     
  -70.477117448543950        32.000058474923648        0.0000000000000000     
  -69.477168903374562        32.000007757870371        0.0000000000000000     
  -68.478320489017563        32.000037688086003        0.0000000000000000     
  -67.487407713779035        32.000269367691345        0.0000000000000000     
  -66.535605586273221        32.001342441384210        0.0000000000000000     
  -65.697037783948062        32.003614352517467        0.0000000000000000     
  -79.438862839816963        32.898299895646936        0.0000000000000000     
  -78.482591563821885        32.999621669772004        0.0000000000000000     
  -77.520143824217811        33.047206590448198        0.0000000000000000     
  -76.475714180269264        32.990639235416417        0.0000000000000000     
  -75.390365934714424        32.912547447470608        0.0000000000000000     
  -74.559096887748623        33.082911942827579        0.0000000000000000     
  -73.516799203823524        33.043621662000511        0.0000000000000000     
  -72.487959505440443        33.012391828863073        0.0000000000000000     
  -71.479024092295532        33.002252223629789        0.0000000000000000     
  -70.477302799823690        33.000272621508941        0.0000000000000000     
  -69.477191601617520        33.000022837736026        0.0000000000000000     
  -68.478393290698193        33.000005889832721        0.0000000000000000     
  -67.487838453806489        33.000036392347312        0.0000000000000000     
  -66.536626304592659        33.000184351940383        0.0000000000000000     
  -65.696210648298205        33.000474298421295        0.0000000000000000     
  -77.518661439729868        34.000524254000368        0.0000000000000000     
  -76.476189747836742        33.991998966352412        0.0000000000000000     
  -75.511421382607267        34.033968772855708        0.0000000000000000     
  -74.391634692615952        33.918803566705542        0.0000000000000000     
  -73.558312162719076        34.101538384686080        0.0000000000000000     
  -72.495644746812872        34.025474084348843        0.0000000000000000     
  -71.480517281960374        34.004803751953709        0.0000000000000000     
  -70.477535649696051        34.000645411014048        0.0000000000000000     
  -69.477217838306288        34.000061128384289        0.0000000000000000     
  -68.478398817661898        34.000004365347536        0.0000000000000000     
  -67.487862810107416        34.000002576331795        0.0000000000000000     
  -66.536668883574819        34.000013030905777        0.0000000000000000     
  -65.696011880939409        34.000036073691867        0.0000000000000000     
  -76.464963445824964        34.984949967311373        0.0000000000000000     
  -75.477570715001079        34.995164544261563        0.0000000000000000     
  -74.509500697137312        35.048013513143594        0.0000000000000000     
  -73.407580612435268        35.023827443884940        0.0000000000000000     
  -72.473565723496208        35.012196784601116        0.0000000000000000     
  -71.477930712724529        35.003286414129818        0.0000000000000000     
  -70.477281748054580        35.000532944918930        0.0000000000000000     
  -69.477195538017739        35.000055171880305        0.0000000000000000     
  -68.478398598333243        35.000002363865129        0.0000000000000000     
  -67.487875589742245        34.999988112433627        0.0000000000000000     
  -66.536725967063973        34.999944673083306        0.0000000000000000     
  -65.696106398491651        34.999893428133710        0.0000000000000000     
  -75.472448678967979        35.988315787623414        0.0000000000000000     
  -74.476719471200909        35.998957958820448        0.0000000000000000     
  -73.637063112639410        35.988253170596124        0.0000000000000000     
  -72.532078945061798        36.021012528885997        0.0000000000000000     
  -71.490486791848454        36.008276032281707        0.0000000000000000     
  -70.479344922683040        36.001711466553658        0.0000000000000000     
  -69.477441674706327        36.000220912797033        0.0000000000000000     
  -68.478435532363619        36.000002818639011        0.0000000000000000     
  -67.487993067481852        35.999888824796585        0.0000000000000000     
  -66.537190136087375        35.999572399383233        0.0000000000000000     
  -65.696943740926500        35.999295389836952        0.0000000000000000     
  -75.475647647662456        37.000223452009543        0.0000000000000000     
  -74.546036680350994        36.987961095870013        0.0000000000000000     
  -73.410864736570275        36.892041590967764        0.0000000000000000     
  -72.562031487055776        37.094398679238807        0.0000000000000000     
  -71.495337665357198        37.024081481981973        0.0000000000000000     
  -70.480192411239187        37.004636268663020        0.0000000000000000     
  -69.477585738797373        37.000625626608894        0.0000000000000000     
  -68.478562029473650        36.999949523894280        0.0000000000000000     
  -67.488641695025038        36.999367539843348        0.0000000000000000     
  -66.539420088293383        36.997964103559084        0.0000000000000000     
  -65.700735215846322        36.997097099770187        0.0000000000000000     
  -74.479239702306870        38.003337659277648        0.0000000000000000     
  -73.465429435663637        38.004752047952934        0.0000000000000000     
  -72.400774177015208        38.027952714627801        0.0000000000000000     
  -71.466735429697621        38.010639302217839        0.0000000000000000     
  -70.475471552953806        38.002453372649903        0.0000000000000000     
  -69.476964983342015        38.000328827208179        0.0000000000000000     
  -68.478862577948320        37.999614417793559        0.0000000000000000     
  -67.490446215059009        37.997967108196534        0.0000000000000000     
  -66.544971651447511        37.994404690703888        0.0000000000000000     
  -65.711565463511604        37.992909961171968        0.0000000000000000     
  -74.517729087107753        39.001387397852127        0.0000000000000000     
  -73.433233724781076        39.067572039236005        0.0000000000000000     
  -72.623849558802334        39.019305948375418        0.0000000000000000     
  -71.507240271673041        39.005660071569842        0.0000000000000000     
  -70.481956267735882        39.001449085245163        0.0000000000000000     
  -69.477829221876547        39.000192800966545        0.0000000000000000     
  -68.479132559614314        38.999341391523998        0.0000000000000000     
  -67.490525422685948        38.997101905170894        0.0000000000000000     
  -66.543639864744534        38.992910276589058        0.0000000000000000     
  -65.728873009736986        38.991740860133106        0.0000000000000000     
  -73.584820003896908        39.796055640618974        0.0000000000000000     
  -80.466644930057399        28.491300130009474        0.0000000000000000     
  -80.459041513839949        28.206343140779278        0.0000000000000000     
  -80.561746277892837        28.274650373764505        0.0000000000000000     
  -80.567033984594303        28.362237809834866        0.0000000000000000     
  -80.464291185594377        28.362751898491847        0.0000000000000000     
  -80.572023786564571        28.472341529992281        0.0000000000000000     
  -80.458763083446527        28.754882514959299        0.0000000000000000     
  -80.722946120174697        29.009106199215793        0.0000000000000000     
  -80.583335460350099        28.584280929036883        0.0000000000000000     
  -80.468899823876697        28.616388013263222        0.0000000000000000     
  -80.605173218156153        28.695459832316264        0.0000000000000000     
  -80.728313029568795        28.871029341862165        0.0000000000000000     
  -79.959172603309696        28.473370678855037        0.0000000000000000     
  -79.309831163371314        28.464578306755694        0.0000000000000000     
  -79.904800433864878        29.037713669900832        0.0000000000000000     
  -80.247080670528035        28.267002222188491        0.0000000000000000     
  -79.998580166085105        28.247267834770238        0.0000000000000000     
  -80.200451314924621        28.493884824509028        0.0000000000000000     
  -80.353334839050731        28.377745895135202        0.0000000000000000     
  -80.345684230795044        28.497396639010038        0.0000000000000000     
  -79.812155062293996        28.224063212035542        0.0000000000000000     
  -79.666675831766540        28.381548678269393        0.0000000000000000     
  -80.241398882680357        28.723273749538645        0.0000000000000000     
  -79.955569378021167        28.740613478238654        0.0000000000000000     
  -80.226469655311476        28.994856210414348        0.0000000000000000     
  -80.354200065984742        28.616780915954379        0.0000000000000000     
  -79.686428016166715        28.702178993592206        0.0000000000000000     
  -78.955283157843709        28.494043497622751        0.0000000000000000     
  -80.827647120279337        29.562804265640544        0.0000000000000000     
  -80.454948868376079        29.570037766100132        0.0000000000000000     
  -80.906676448382598        29.990628535281470        0.0000000000000000     
  -80.763297162013586        29.242587487961913        0.0000000000000000     
  -80.493668793822806        29.254892377009309        0.0000000000000000     
  -80.012568960434592        29.463927295083302        0.0000000000000000     
  -79.466955835090758        29.474619131743271        0.0000000000000000     
  -79.979495414547188        29.993631506893617        0.0000000000000000     
  -80.242221082990582        29.240174678169133        0.0000000000000000     
  -78.985230406610910        29.483625534933083        0.0000000000000000     
  -78.891084529430472        29.990885652766803        0.0000000000000000     
  -80.999641768381039        30.487830726706779        0.0000000000000000     
  -80.490681534674934        30.508991965010164        0.0000000000000000     
  -80.940183724749772        30.930301002662794        0.0000000000000000     
  -81.223531974462517        30.669238424490260        0.0000000000000000     
  -81.202379237784939        30.925046572712734        0.0000000000000000     
  -79.970854198735040        30.509136229463579        0.0000000000000000     
  -79.418254294323006        30.531590359495791        0.0000000000000000     
  -79.978731810674461        31.032720264769456        0.0000000000000000     
  -78.807805306652540        30.601178067413080        0.0000000000000000     
  -80.986387398658238        31.476588605004814        0.0000000000000000     
  -80.440773070259127        31.457053964267477        0.0000000000000000     
  -81.202439407274227        31.125866348025717        0.0000000000000000     
  -81.035148013107275        31.233664199329883        0.0000000000000000     
  -80.758225051182393        31.259270621676720        0.0000000000000000     
  -80.738387633457975        31.490140195065951        0.0000000000000000     
  -80.962345353200291        31.650608835685112        0.0000000000000000     
  -80.785247314156578        31.744321670144235        0.0000000000000000     
  -80.498062091661680        31.747501991453671        0.0000000000000000     
  -80.730302960626190        31.933747367013261        0.0000000000000000     
  -80.017225097523593        31.547134863498357        0.0000000000000000     
  -79.493852712137652        31.548173440027945        0.0000000000000000     
  -79.941598811421628        31.959220308965470        0.0000000000000000     
  -80.246873156357665        31.764063429478426        0.0000000000000000     
  -80.245453781329729        32.001674472815274        0.0000000000000000     
  -79.062733599918232        31.588941304942139        0.0000000000000000     
  -79.018235820873485        32.024863179913964        0.0000000000000000     
  -78.083446290244993        31.331196916947075        0.0000000000000000     
  -77.481593276524990        31.411728431021061        0.0000000000000000     
  -78.021093791589976        31.947756718794867        0.0000000000000000     
  -76.994205393885906        31.493912590885007        0.0000000000000000     
  -76.959810824729573        31.975702374673222        0.0000000000000000     
  -80.476283230555865        32.193028534559524        0.0000000000000000     
  -80.022189949428750        32.451430904107532        0.0000000000000000     
  -79.449067934765637        32.473925805179718        0.0000000000000000     
  -80.272549507027989        32.263488523991491        0.0000000000000000     
  -79.993508473023525        32.239568850302128        0.0000000000000000     
  -80.191779802853802        32.425936085928811        0.0000000000000000     
  -79.758396540824947        32.268549414357587        0.0000000000000000     
  -79.782561886793985        32.517112308779026        0.0000000000000000     
  -79.706643678083793        32.692972742814902        0.0000000000000000     
  -79.503621323814457        32.746466689296142        0.0000000000000000     
  -79.000394656145517        32.576004779945933        0.0000000000000000     
  -78.506364180597657        32.444769940625910        0.0000000000000000     
  -79.073059632086157        32.982649589388288        0.0000000000000000     
  -79.254549424766111        32.758867263744158        0.0000000000000000     
  -79.286538259483947        32.933473803446745        0.0000000000000000     
  -78.738747125684341        32.771626923951274        0.0000000000000000     
  -78.485655299150125        32.743274013463648        0.0000000000000000     
  -78.757981888229295        33.005931579109017        0.0000000000000000     
  -78.032979110627863        32.526546677792517        0.0000000000000000     
  -77.498384579506620        32.514173791880758        0.0000000000000000     
  -77.933989423922270        32.954522405927001        0.0000000000000000     
  -78.239948281783853        32.755271929473572        0.0000000000000000     
  -78.219427964552992        32.990185846331293        0.0000000000000000     
  -76.975781566429205        32.500394375728575        0.0000000000000000     
  -76.459065984366219        32.480076095931828        0.0000000000000000     
  -76.985939313964138        33.026371654148093        0.0000000000000000     
  -75.993393308100366        32.515413725195394        0.0000000000000000     
  -75.969956698438608        32.989404043786692        0.0000000000000000     
  -78.979853122404165        33.486631473476422        0.0000000000000000     
  -78.460112641897382        33.518388928113865        0.0000000000000000     
  -79.127946843735828        33.293881308774175        0.0000000000000000     
  -79.039501122404999        33.233073976606050        0.0000000000000000     
  -79.106524484779143        33.367428122962124        0.0000000000000000     
  -78.995569085617092        33.367451881767764        0.0000000000000000     
  -79.083789715756197        33.469788169740191        0.0000000000000000     
  -78.764826564322902        33.273296983965757        0.0000000000000000     
  -78.481128244355588        33.258391816088341        0.0000000000000000     
  -78.696737624265282        33.493576047225112        0.0000000000000000     
  -78.865041233994120        33.379886021950874        0.0000000000000000     
  -78.850057728128320        33.501178348495408        0.0000000000000000     
  -79.071112065981339        33.552647185983830        0.0000000000000000     
  -78.993947056950574        33.590152355988913        0.0000000000000000     
  -78.717154787663077        33.674677013402253        0.0000000000000000     
  -78.547676338240649        33.718372871944254        0.0000000000000000     
  -78.865129402131103        33.634230152522008        0.0000000000000000     
  -77.976934796489275        33.535008485823305        0.0000000000000000     
  -77.453070979108091        33.493413571369821        0.0000000000000000     
  -78.223696743954235        33.245212915154426        0.0000000000000000     
  -77.968349496787525        33.248090621084486        0.0000000000000000     
  -78.222569899325094        33.481520439742930        0.0000000000000000     
  -77.735994412224088        33.255402840440055        0.0000000000000000     
  -77.723245143878188        33.475718610389094        0.0000000000000000     
  -78.225614425533280        33.760587751518337        0.0000000000000000     
  -77.990830541089920        33.739175084178008        0.0000000000000000     
  -78.354942410327880        33.638654187509538        0.0000000000000000     
  -78.226436135836551        33.627277239673568        0.0000000000000000     
  -78.379252473943268        33.775486762654246        0.0000000000000000     
  -78.102559515501895        33.631654024998518        0.0000000000000000     
  -78.105261986470424        33.735781794966321        0.0000000000000000     
  -78.328392547667335        33.847104402337820        0.0000000000000000     
  -78.253885706600769        33.848283947687854        0.0000000000000000     
  -78.117616051180875        33.869089705966843        0.0000000000000000     
  -77.972088524353168        33.858231822586845        0.0000000000000000     
  -78.169235329597555        33.812583131927013        0.0000000000000000     
  -78.107577833845880        33.808567904799872        0.0000000000000000     
  -78.183708045987117        33.863521358538421        0.0000000000000000     
  -78.046749162323607        33.810705246562542        0.0000000000000000     
  -78.049231801835262        33.877525084673536        0.0000000000000000     
  -78.028196747071874        33.915041159022834        0.0000000000000000     
  -77.987946551754675        33.920912815423200        0.0000000000000000     
  -77.726828048177794        33.750025893621412        0.0000000000000000     
  -77.448793230623068        33.752094208916724        0.0000000000000000     
  -77.707189069134728        33.999558228304529        0.0000000000000000     
  -77.853081459371339        33.634429464818993        0.0000000000000000     
  -77.725184326230661        33.620445639950930        0.0000000000000000     
  -77.858009182534332        33.752247511759293        0.0000000000000000     
  -77.594232235980471        33.621141070257330        0.0000000000000000     
  -77.596374347848197        33.749467562686810        0.0000000000000000     
  -77.865036444779662        33.886582217929963        0.0000000000000000     
  -77.727205469791897        33.878242152337698        0.0000000000000000     
  -77.833031626832707        33.992076345058905        0.0000000000000000     
  -77.937003910972706        33.947906768201385        0.0000000000000000     
  -77.908863982748358        34.000333970585359        0.0000000000000000     
  -77.611907210504882        33.875898107591681        0.0000000000000000     
  -76.975856288570284        33.578699201651013        0.0000000000000000     
  -76.486889975228635        33.462035244749174        0.0000000000000000     
  -76.981211154838519        33.959477913979455        0.0000000000000000     
  -77.223325256311341        33.773288769640956        0.0000000000000000     
  -77.243937078037007        34.006897327038978        0.0000000000000000     
  -76.726308476580854        33.769475919033916        0.0000000000000000     
  -76.480609651461705        33.744895821318188        0.0000000000000000     
  -76.723274327266225        33.997222040986792        0.0000000000000000     
  -76.020794437397711        33.533418916827024        0.0000000000000000     
  -75.479140271603967        33.500136392583912        0.0000000000000000     
  -75.933697138174153        33.954402649070950        0.0000000000000000     
  -76.238812779108699        33.757408537954632        0.0000000000000000     
  -76.223892330624778        33.993901874980523        0.0000000000000000     
  -74.999464797707930        33.522277023941676        0.0000000000000000     
  -74.977529223878378        34.001029376397163        0.0000000000000000     
  -77.720399197325719        34.209713395352409        0.0000000000000000     
  -77.485519226047728        34.244379550519646        0.0000000000000000     
  -77.847875536745676        34.070736832929803        0.0000000000000000     
  -77.751231078536293        34.119828431375637        0.0000000000000000     
  -77.898938728215526        34.045186651679380        0.0000000000000000     
  -77.623871910295136        34.122767886570365        0.0000000000000000     
  -77.621980950575889        34.237462323903586        0.0000000000000000     
  -76.995340182004966        34.497523651448219        0.0000000000000000     
  -76.478395749459494        34.496041165676537        0.0000000000000000     
  -77.259065134264603        34.299275130235621        0.0000000000000000     
  -76.985130920481112        34.256780470947916        0.0000000000000000     
  -77.174141989012028        34.467592723859731        0.0000000000000000     
  -76.709264237469625        34.268094780920443        0.0000000000000000     
  -76.477541834289596        34.225784110660449        0.0000000000000000     
  -76.764817109065248        34.477343296943900        0.0000000000000000     
  -76.598291705733601        34.379209650405805        0.0000000000000000     
  -76.477511752388210        34.370666660424369        0.0000000000000000     
  -76.609173460280658        34.497842349324436        0.0000000000000000     
  -76.707050852580508        34.711220556826845        0.0000000000000000     
  -76.484496251257042        34.752467970253534        0.0000000000000000     
  -76.899554782013382        34.619563197884865        0.0000000000000000     
  -76.757324702701993        34.639159520284913        0.0000000000000000     
  -76.602843681076337        34.633851325732088        0.0000000000000000     
  -76.479884262736846        34.613892763019372        0.0000000000000000     
  -76.632270127730450        34.720796338529304        0.0000000000000000     
  -76.544930537132217        34.691861351802686        0.0000000000000000     
  -76.480459047423693        34.687300162358625        0.0000000000000000     
  -76.558840697684701        34.752457677305294        0.0000000000000000     
  -76.459149623607516        34.873357497335064        0.0000000000000000     
  -76.535869629387037        34.796513323566067        0.0000000000000000     
  -76.487671028539140        34.815946863310579        0.0000000000000000     
  -76.461352811491125        34.927615289101098        0.0000000000000000     
  -75.993858229040839        34.521764862972553        0.0000000000000000     
  -75.429688652113683        34.452924514104176        0.0000000000000000     
  -76.014431805465719        34.999688298403235        0.0000000000000000     
  -76.248116964544721        34.265970598202983        0.0000000000000000     
  -75.977763792414692        34.250441490447713        0.0000000000000000     
  -76.204755980126251        34.477673770179749        0.0000000000000000     
  -76.357606147736050        34.378416829533236        0.0000000000000000     
  -76.350638453096138        34.497478953237049        0.0000000000000000     
  -75.736076165095042        34.259233008815151        0.0000000000000000     
  -75.721437063608363        34.496304597944487        0.0000000000000000     
  -76.223851361196139        34.750490062495992        0.0000000000000000     
  -75.957661216045707        34.755111425247414        0.0000000000000000     
  -76.203267006382887        35.000592974438504        0.0000000000000000     
  -76.362918499556926        34.635641536189723        0.0000000000000000     
  -76.224675356711728        34.623484229238997        0.0000000000000000     
  -76.342720281819709        34.752948435352231        0.0000000000000000     
  -76.418267077929798        34.690822155780850        0.0000000000000000     
  -76.416038928039455        34.752250127970463        0.0000000000000000     
  -76.105873101281745        34.630899319331576        0.0000000000000000     
  -76.099577342717907        34.751995884547604        0.0000000000000000     
  -76.367873682805453        34.875176708225133        0.0000000000000000     
  -76.226688456085995        34.875241425756556        0.0000000000000000     
  -76.339030081211263        34.998961101521914        0.0000000000000000     
  -76.422662286348086        34.814532623995305        0.0000000000000000     
  -76.414997876188920        34.934532072518138        0.0000000000000000     
  -76.411044596688399        34.995499830277616        0.0000000000000000     
  -76.111703112853576        34.875179839730379        0.0000000000000000     
  -75.721600485652999        34.750138417755799        0.0000000000000000     
  -75.467194417748487        34.740186502830610        0.0000000000000000     
  -75.736165570631229        35.008780245660162        0.0000000000000000     