 VARIABLES = "X", "Y", "Z"
 ZONE F=FEPOINT, ET=QUADRILATERAL, N=        1303 E=        1193
  -30.000000000000000       -30.000000000000000        0.0000000000000000     
  -26.000000000000000       -30.000000000000000        0.0000000000000000     
  -22.000000000000000       -30.000000000000000        0.0000000000000000     
  -18.000000000000000       -30.000000000000000        0.0000000000000000     
  -14.000000000000000       -30.000000000000000        0.0000000000000000     
  -10.000000000000000       -30.000000000000000        0.0000000000000000     
  -6.0000000000000000       -30.000000000000000        0.0000000000000000     
  -2.0000000000000000       -30.000000000000000        0.0000000000000000     
   2.0000000000000000       -30.000000000000000        0.0000000000000000     
   6.0000000000000000       -30.000000000000000        0.0000000000000000     
   10.000000000000000       -30.000000000000000        0.0000000000000000     
   14.000000000000000       -30.000000000000000        0.0000000000000000     
   18.000000000000000       -30.000000000000000        0.0000000000000000     
   22.000000000000000       -30.000000000000000        0.0000000000000000     
   26.000000000000000       -30.000000000000000        0.0000000000000000     
   30.000000000000000       -30.000000000000000        0.0000000000000000     
  -30.000000000000000       -26.000000000000000        0.0000000000000000     
  -25.999815218870125       -25.999815236179039        0.0000000000000000     
  -21.999392989477737       -25.999465896569024        0.0000000000000000     
  -17.998615884608551       -25.998948228816023        0.0000000000000000     
  -13.997723743837584       -25.998477708892064        0.0000000000000000     
  -9.9972890771372800       -25.998246202394824        0.0000000000000000     
  -5.9976985252464772       -25.998170353743966        0.0000000000000000     
  -1.9987757280759484       -25.998088462849800        0.0000000000000000     
   1.9999042632657824       -25.998041492392456        0.0000000000000000     
   5.9986098468708482       -25.998108656939131        0.0000000000000000     
   9.9975928864595680       -25.998200425776524        0.0000000000000000     
   13.997243416884455       -25.998273871233248        0.0000000000000000     
   17.997714407962462       -25.998497187884961        0.0000000000000000     
   21.998624541753752       -25.998966327627794        0.0000000000000000     
   25.999437872908288       -25.999517615564024        0.0000000000000000     
   30.000000000000000       -26.000000000000000        0.0000000000000000     
  -30.000000000000000       -22.000000000000000        0.0000000000000000     
  -25.999466646776412       -21.999394024564431        0.0000000000000000     
  -21.998007472922943       -21.998008016680327        0.0000000000000000     
  -17.994831567212401       -21.995645523454137        0.0000000000000000     
  -13.990696749672118       -21.993485669762180        0.0000000000000000     
  -9.9884738159377644       -21.992824575807422        0.0000000000000000     
  -5.9903083177675134       -21.993012116846927        0.0000000000000000     
  -1.9950752162379091       -21.992796678416024        0.0000000000000000     
   1.9995157521827753       -21.992544768929321        0.0000000000000000     
   5.9942588549705027       -21.992908202976491        0.0000000000000000     
   9.9898403662820936       -21.993180948717900        0.0000000000000000     
   13.988325050904567       -21.992982415086860        0.0000000000000000     
   17.990703220604694       -21.993592881122350        0.0000000000000000     
   21.994877162307862       -21.995718575683995        0.0000000000000000     
   25.998132798160849       -21.998164932632761        0.0000000000000000     
   30.000000000000000       -22.000000000000000        0.0000000000000000     
  -30.000000000000000       -18.000000000000000        0.0000000000000000     
  -25.998955069669773       -17.998625345392202        0.0000000000000000     
  -21.995659168182890       -17.994852085070235        0.0000000000000000     
  -17.986221458210117       -17.986231144733495        0.0000000000000000     
  -13.970583722411009       -17.977193196017677        0.0000000000000000     
  -9.9607746576309246       -17.976432266005222        0.0000000000000000     
  -5.9679404485158738       -17.979675417878902        0.0000000000000000     
  -1.9853609468167617       -17.978626674554640        0.0000000000000000     
   1.9980772185470852       -17.976949476612759        0.0000000000000000     
   5.9822439520119008       -17.979097784379519        0.0000000000000000     
   9.9664629978368708       -17.980413730445825        0.0000000000000000     
   13.960634682133330       -17.977148887340686        0.0000000000000000     
   17.970856201065327       -17.977666249872165        0.0000000000000000     
   21.986423209655356       -17.986473295136424        0.0000000000000000     
   25.995918801352307       -17.995193189840684        0.0000000000000000     
   30.000000000000000       -18.000000000000000        0.0000000000000000     
  -30.000000000000000       -14.000000000000000        0.0000000000000000     
  -25.998514412673781       -13.997779485187175        0.0000000000000000     
  -21.993583594866461       -13.990844838728725        0.0000000000000000     
  -17.977338175302517       -13.970825431386615        0.0000000000000000     
  -13.925734171222485       -13.925836589423554        0.0000000000000000     
  -9.8807079238199140       -13.932817855835523        0.0000000000000000     
  -5.9121886729053035       -13.959174039844543        0.0000000000000000     
  -1.9701592830763917       -13.943130394424539        0.0000000000000000     
   1.9936684966953957       -13.938545110673346        0.0000000000000000     
   5.9601942046640328       -13.944707623104001        0.0000000000000000     
   9.9090590884834437       -13.961736709411388        0.0000000000000000     
   13.882314337062063       -13.935548640302384        0.0000000000000000     
   17.927291499540857       -13.927518195739545        0.0000000000000000     
   21.977963594865543       -13.971417892095015        0.0000000000000000     
   25.994027684902051       -13.991395180242243        0.0000000000000000     
   30.000000000000000       -14.000000000000000        0.0000000000000000     
  -30.000000000000000       -10.000000000000000        0.0000000000000000     
  -25.998379370428847       -9.9975223978004717        0.0000000000000000     
  -21.993241584296953       -9.9891834695269797        0.0000000000000000     
  -17.977281846536634       -9.9621959682061920        0.0000000000000000     
  -13.933793144302502       -9.8824818332241087        0.0000000000000000     
  -9.5450232332189113       -9.5455721279240784        0.0000000000000000     
  -5.8643490755529291       -10.403807441032862        0.0000000000000000     
  -1.9598577498272192       -9.3527032423655516        0.0000000000000000     
   1.9865119134501268       -10.372309408873370        0.0000000000000000     
   5.9227304320732337       -9.3578647298919453        0.0000000000000000     
   9.8672446181761782       -10.409121888168450        0.0000000000000000     
   13.556461600556778       -9.5565637197563831        0.0000000000000000     
   17.937928225168562       -9.8860263865094229        0.0000000000000000     
   21.978703093920288       -9.9631454699514581        0.0000000000000000     
   25.993906613057657       -9.9898089587980117        0.0000000000000000     
   30.000000000000000       -10.000000000000000        0.0000000000000000     
  -30.000000000000000       -6.0000000000000000        0.0000000000000000     
  -25.998491504756462       -5.9983919378179822        0.0000000000000000     
  -21.994196744499863       -5.9927422179317018        0.0000000000000000     
  -17.982650600679683       -5.9736800437645305        0.0000000000000000     
  -13.963874192589065       -5.9208002055970415        0.0000000000000000     
  -10.407942301626397       -5.8716765050329665        0.0000000000000000     
  -5.7574893328755650       -5.7582278330485943        0.0000000000000000     
  -1.9762330257822101       -5.8749544357439403        0.0000000000000000     
   1.9832407058752040       -5.6955571646952796        0.0000000000000000     
   5.7557558243841704       -6.0262159376778133        0.0000000000000000     
   9.9409553271094673       -5.9243535586514877        0.0000000000000000     
   14.425269330390741       -5.8865297788426263        0.0000000000000000     
   17.971845508248428       -5.9246346412653921        0.0000000000000000     
   21.985121881977513       -5.9744460127255525        0.0000000000000000     
   25.995097344195973       -5.9931142092653795        0.0000000000000000     
   30.000000000000000       -6.0000000000000000        0.0000000000000000     
  -30.000000000000000       -2.0000000000000000        0.0000000000000000     
  -25.998578123052408       -2.0002172110413685        0.0000000000000000     
  -21.994832200606563       -2.0008622906298164        0.0000000000000000     
  -17.985457681472898       -2.0021335414965540        0.0000000000000000     
  -13.958054829580353       -2.0016527664652171        0.0000000000000000     
  -9.3677158773035085       -1.9883796184132689        0.0000000000000000     
  -5.8652427419163660       -1.9656830839300430        0.0000000000000000     
  -1.9940105332413345       -2.0152879316869332        0.0000000000000000     
   2.0006938628139541       -2.0001447787298141        0.0000000000000000     
   6.0231911446989184       -1.9874116235076318        0.0000000000000000     
   10.257050725887845       -1.9680285580367802        0.0000000000000000     
   13.405519612880774       -1.9937853695113845        0.0000000000000000     
   17.969154544030118       -2.0017163747536526        0.0000000000000000     
   21.988853292276961       -2.0015609299389512        0.0000000000000000     
   25.995951723017274       -2.0005828691136496        0.0000000000000000     
   30.000000000000000       -2.0000000000000000        0.0000000000000000     
  -30.000000000000000        2.0000000000000000        0.0000000000000000     
  -25.998465698242693        1.9978714596993243        0.0000000000000000     
  -21.994200947373329        1.9904623005724573        0.0000000000000000     
  -17.983568493238643        1.9666227494828217        0.0000000000000000     
  -13.971312672384935        1.9062241085362257        0.0000000000000000     
  -10.435538199516346        1.8621051465299636        0.0000000000000000     
  -5.7034478510812967        1.9533592287748578        0.0000000000000000     
  -1.9931500465274561        2.0142154109655288        0.0000000000000000     
   2.0201941836496027        1.8439701706426790        0.0000000000000000     
   5.9846630632790161        1.9709875260058227        0.0000000000000000     
   10.020141466573248        1.9567746558079544        0.0000000000000000     
   14.459049972765591        1.8776356612305800        0.0000000000000000     
   17.983472586439827        1.9147284037481123        0.0000000000000000     
   21.987576816858347        1.9695389665676926        0.0000000000000000     
   25.995493661633333        1.9915733725730300        0.0000000000000000     
   30.000000000000000        2.0000000000000000        0.0000000000000000     
  -30.000000000000000        6.0000000000000000        0.0000000000000000     
  -25.998266501189732        5.9968418623757067        0.0000000000000000     
  -21.992766560945959        5.9858631873740622        0.0000000000000000     
  -17.976152645314475        5.9498646204580163        0.0000000000000000     
  -13.934997964299928        5.8457150899295751        0.0000000000000000     
  -9.5911519634126989        5.4520657144110025        0.0000000000000000     
  -6.0671631415684191        6.0669950504444534        0.0000000000000000     
  -1.9869456638422966        5.7306599164122982        0.0000000000000000     
   1.7821824028148638        6.0269322213380647        0.0000000000000000     
   5.9439750917827512        5.9943264150643163        0.0000000000000000     
   10.312122471391012        6.3112428297563898        0.0000000000000000     
   13.626107288140144        5.5052432958924982        0.0000000000000000     
   17.948514617125234        5.8618527630016848        0.0000000000000000     
   21.980444157487735        5.9546082114877024        0.0000000000000000     
   25.994124902584044        5.9875250443472021        0.0000000000000000     
   30.000000000000000        6.0000000000000000        0.0000000000000000     
  -30.000000000000000        10.000000000000000        0.0000000000000000     
  -25.998286842808259        9.9970486792040436        0.0000000000000000     
  -21.992367165475336        9.9871594944906619        0.0000000000000000     
  -17.972248297033492        9.9565398766648414        0.0000000000000000     
  -13.907554352264428        9.8806991864310874        0.0000000000000000     
  -9.8048653604309788        9.8044818273215206        0.0000000000000000     
  -5.4569251390112319        9.5940986924730733        0.0000000000000000     
  -1.8755651251013405        10.444315463400567        0.0000000000000000     
   1.9589550168422356        9.3879044642674021        0.0000000000000000     
   5.8626450129582741        10.448355484990310        0.0000000000000000     
   9.5014657678289840        9.6224319931297746        0.0000000000000000     
   13.843156733877768        9.8432273075430015        0.0000000000000000     
   17.920182592858431        9.8953930438155009        0.0000000000000000     
   21.976071384868419        9.9610725605382324        0.0000000000000000     
   25.993579542730902        9.9887656945490377        0.0000000000000000     
   30.000000000000000        10.000000000000000        0.0000000000000000     
  -30.000000000000000        14.000000000000000        0.0000000000000000     
  -25.998677366359107        13.998027978398300        0.0000000000000000     
  -21.994115806487436        13.991902286453575        0.0000000000000000     
  -17.979431723922684        13.975228439718640        0.0000000000000000     
  -13.945374048814887        13.945300066949837        0.0000000000000000     
  -9.8813840196742415        13.907804138631732        0.0000000000000000     
  -5.8483028249903359        13.936347092151786        0.0000000000000000     
  -1.9126187610681136        13.975125457380088        0.0000000000000000     
   1.9920523841760698        13.966649842773341        0.0000000000000000     
   5.9075670491727124        13.979699626611534        0.0000000000000000     
   9.8592128119711777        13.946783460199644        0.0000000000000000     
   13.894792664072011        13.919788736149215        0.0000000000000000     
   17.952709099719868        13.952746935119292        0.0000000000000000     
   21.981920437717747        13.978002215954621        0.0000000000000000     
   25.994967164671202        13.992990498375782        0.0000000000000000     
   30.000000000000000        14.000000000000000        0.0000000000000000     
  -30.000000000000000        18.000000000000000        0.0000000000000000     
  -25.999238203214063        17.999026057462846        0.0000000000000000     
  -21.996790063437874        17.996300524076307        0.0000000000000000     
  -17.989868189025987        17.989860525016500        0.0000000000000000     
  -13.975301786744465        17.979448361542833        0.0000000000000000     
  -9.9568808966743152        17.972388990424015        0.0000000000000000     
  -5.9509123625215903        17.976656058952713        0.0000000000000000     
  -1.9688503830034954        17.984894668921655        0.0000000000000000     
   1.9984197446194183        17.988245116307979        0.0000000000000000     
   5.9678076427369007        17.986607793986320        0.0000000000000000     
   9.9534784962387022        17.979812732738743        0.0000000000000000     
   13.960657965175550        17.975831612899775        0.0000000000000000     
   17.977883341744338        17.981858637978647        0.0000000000000000     
   21.990974315508900        17.990988801648658        0.0000000000000000     
   25.997237201252108        17.996829477982374        0.0000000000000000     
   30.000000000000000        18.000000000000000        0.0000000000000000     
  -30.000000000000000        22.000000000000000        0.0000000000000000     
  -25.999676518126574        21.999639314839122        0.0000000000000000     
  -21.998734131630350        21.998733642283710        0.0000000000000000     
  -17.996305920478640        21.996790934687095        0.0000000000000000     
  -13.991932979212466        21.994126517052742        0.0000000000000000     
  -9.9872764402759060        21.992414567103996        0.0000000000000000     
  -5.9861797955612213        21.992913845721059        0.0000000000000000     
  -1.9911152167067623        21.994560743144710        0.0000000000000000     
   1.9997241023814403        21.995494777803874        0.0000000000000000     
   5.9909472956123366        21.994998119217527        0.0000000000000000     
   9.9867163442458509        21.993667688380420        0.0000000000000000     
   13.988129313225699        21.993221913792926        0.0000000000000000     
   17.992598181981407        21.994724805706579        0.0000000000000000     
   21.996643523732359        21.997111794687424        0.0000000000000000     
   25.998906063735973        21.998920697727339        0.0000000000000000     
   30.000000000000000        22.000000000000000        0.0000000000000000     
  -30.000000000000000        26.000000000000000        0.0000000000000000     
  -25.999901736604457        25.999901717603791        0.0000000000000000     
  -21.999639570321566        25.999676550038458        0.0000000000000000     
  -17.999027860703883        25.999238773636971        0.0000000000000000     
  -13.998036497153397        25.998680473144862        0.0000000000000000     
  -9.9970773363026897        25.998298304598251        0.0000000000000000     
  -5.9969142249123815        25.998299132392731        0.0000000000000000     
  -1.9980184440000244        25.998538222741125        0.0000000000000000     
   1.9999604883896527        25.998697175616218        0.0000000000000000     
   5.9979972744120795        25.998619557855442        0.0000000000000000     
   9.9970043896632230        25.998436012713302        0.0000000000000000     
   13.997226646761087        25.998444540880712        0.0000000000000000     
   17.998163725702469        25.998793127819098        0.0000000000000000     
   21.999101509587856        25.999305570195201        0.0000000000000000     
   25.999686766564771        25.999724348408034        0.0000000000000000     
   30.000000000000000        26.000000000000000        0.0000000000000000     
  -30.000000000000000        30.000000000000000        0.0000000000000000     
  -26.000000000000000        30.000000000000000        0.0000000000000000     
  -22.000000000000000        30.000000000000000        0.0000000000000000     
  -18.000000000000000        30.000000000000000        0.0000000000000000     
  -14.000000000000000        30.000000000000000        0.0000000000000000     
  -10.000000000000000        30.000000000000000        0.0000000000000000     
  -6.0000000000000000        30.000000000000000        0.0000000000000000     
  -2.0000000000000000        30.000000000000000        0.0000000000000000     
   2.0000000000000000        30.000000000000000        0.0000000000000000     
   6.0000000000000000        30.000000000000000        0.0000000000000000     
   10.000000000000000        30.000000000000000        0.0000000000000000     
   14.000000000000000        30.000000000000000        0.0000000000000000     
   18.000000000000000        30.000000000000000        0.0000000000000000     
   22.000000000000000        30.000000000000000        0.0000000000000000     
   26.000000000000000        30.000000000000000        0.0000000000000000     
   30.000000000000000        30.000000000000000        0.0000000000000000     
  -7.6448877574709426       -7.6452300836492562        0.0000000000000000     
  -5.8624368670226827       -7.8586017348751609        0.0000000000000000     
  -7.8599890856274257       -5.8652863114790605        0.0000000000000000     
  -4.1462812932135735       -7.6978362854476829        0.0000000000000000     
  -3.9668346712674514       -6.3182669348368465        0.0000000000000000     
  0.23259807233238683       -7.6821256802157460        0.0000000000000000     
   1.9807917023768367       -7.8681712541391668        0.0000000000000000     
   4.2631894773717392E-002  -6.3044818547481478        0.0000000000000000     
   3.7136998149748388       -7.7082030881687338        0.0000000000000000     
   3.8933809588759294       -6.3457697388977401        0.0000000000000000     
   8.1432062116764392       -7.6750505031176823        0.0000000000000000     
   9.8980370373343494       -7.8696948482700302        0.0000000000000000     
   7.9699038876412853       -6.0363798051488242        0.0000000000000000     
   11.680456997709420       -7.6780828921191544        0.0000000000000000     
   11.889578389698464       -5.9083741978568582        0.0000000000000000     
  -7.6995852526581450       -4.1499281911951584        0.0000000000000000     
  -6.3151109383740049       -3.9657408055101881        0.0000000000000000     
  -3.9921277564351416       -4.0014662179268612        0.0000000000000000     
  -1.9800836058600619       -4.1861195165322895        0.0000000000000000     
  -4.0630262638931045       -1.8785845912143040        0.0000000000000000     
  -4.8692138674639658       -4.8709126643255569        0.0000000000000000     
  -3.9710820656611672       -5.0027779964209564        0.0000000000000000     
  -4.9941224653157112       -3.9692005718803411        0.0000000000000000     
  -3.0976915058131724       -4.9429625907532149        0.0000000000000000     
  -2.9993621297017756       -4.1016128593465959        0.0000000000000000     
  -4.9186472657736857       -3.0834312636613213        0.0000000000000000     
  -4.0656466056666796       -2.9981000039995696        0.0000000000000000     
  -2.9161112809963199       -2.9539285713966605        0.0000000000000000     
  -1.9770911131939901       -3.1820227960134773        0.0000000000000000     
  -3.1292099475527504       -2.0906458563966468        0.0000000000000000     
  -2.4343897329051130       -2.4763603217208430        0.0000000000000000     
  -1.9864344424838940       -2.5132097874206796        0.0000000000000000     
  -2.5000656012878388       -2.0510909842568283        0.0000000000000000     
   4.2570945126691254E-003  -4.0168028291594409        0.0000000000000000     
   1.9937309727836841       -4.1274136464886446        0.0000000000000000     
   3.9565430015387577E-004  -1.9904479596725444        0.0000000000000000     
 -0.87254249803385575       -4.9423047278674304        0.0000000000000000     
   1.0108723945187324E-002  -5.0057491497910389        0.0000000000000000     
 -0.97129998990661881       -4.1036360974666453        0.0000000000000000     
  0.88841826077481989       -4.8899384514342108        0.0000000000000000     
  0.98094428568063274       -4.0668084530650939        0.0000000000000000     
 -0.99318893908035610       -2.8906226070375012        0.0000000000000000     
   2.2183906180909332E-003  -3.1313638464155860        0.0000000000000000     
  -1.0064215094762274       -2.0737864724988517        0.0000000000000000     
  -1.5509696138207583       -2.4578908608665753        0.0000000000000000     
  -1.5078598275340205       -2.0426297350363076        0.0000000000000000     
 -0.44407988817037392       -2.4440550147927489        0.0000000000000000     
   1.0193632492984511E-003  -2.4859697444094579        0.0000000000000000     
 -0.50051544440262774       -2.0321538804174097        0.0000000000000000     
   1.0000181336887648       -2.8765744096253258        0.0000000000000000     
   1.9973708152795420       -3.1480677228901595        0.0000000000000000     
   1.0091933977739165       -2.0689342113486808        0.0000000000000000     
  0.44610697625279655       -2.4410468657323161        0.0000000000000000     
  0.50183536501516701       -2.0300070892355917        0.0000000000000000     
   1.5584800382394117       -2.4455515794616338        0.0000000000000000     
   1.9993243736294735       -2.4912605748290253        0.0000000000000000     
   1.5130309338999324       -2.0340316520946176        0.0000000000000000     
   3.9749451541554723       -4.0428047590014753        0.0000000000000000     
   6.1757042015270516       -4.2334035308052727        0.0000000000000000     
   3.9874667326882496       -1.9929816460295215        0.0000000000000000     
   3.0879238360996526       -4.9053878615298911        0.0000000000000000     
   3.9477023740100936       -5.0436712397178711        0.0000000000000000     
   3.0039902287136382       -4.0777499850040622        0.0000000000000000     
   4.8320911926411663       -5.0023932655211603        0.0000000000000000     
   4.9711437391525903       -4.1366231439982366        0.0000000000000000     
   2.9930692596518687       -2.8821705648322418        0.0000000000000000     
   3.9789908813359776       -3.1493293465862835        0.0000000000000000     
   2.9901927788756457       -2.0708745259301709        0.0000000000000000     
   2.4402731012911802       -2.4466892831156728        0.0000000000000000     
   2.4877198206640201       -2.0345338812262699        0.0000000000000000     
   3.5471508542585264       -2.4459237515017231        0.0000000000000000     
   3.9848337835235088       -2.4910150403478779        0.0000000000000000     
   3.4960822985506610       -2.0335914343884642        0.0000000000000000     
   4.9265093972712002       -2.9431395210561768        0.0000000000000000     
   6.0941092787306426       -2.9969069521723672        0.0000000000000000     
   5.1386525195879011       -1.9851927338225419        0.0000000000000000     
   4.4349548257145051       -2.4404494181594836        0.0000000000000000     
   4.4841310870194224       -1.9874696065900126        0.0000000000000000     
   7.8753899454549092       -3.8055008874014242        0.0000000000000000     
   10.105913943435189       -3.9790132762893715        0.0000000000000000     
   8.3244775790609946       -1.9532393912303101        0.0000000000000000     
   6.9409582266571928       -2.8620228083166412        0.0000000000000000     
   7.0140707084246987       -1.9710502426891046        0.0000000000000000     
   11.727124714320448       -4.1823592291761837        0.0000000000000000     
  -7.7025365667831167       0.19821185281578879        0.0000000000000000     
  -6.3112425180171972        2.7232208917778573E-002   0.0000000000000000     
  -7.9205694541045997        1.9001781013500023        0.0000000000000000     
  -3.8709614606881892        1.1523739243512446E-003   0.0000000000000000     
  -4.0248860016560100        1.8776369570096374        0.0000000000000000     
  -4.9366235467321431      -0.85539449954802904        0.0000000000000000     
  -4.2192217166291561      -0.94422826076795630        0.0000000000000000     
  -5.0015150885562187        5.3438124049004308E-003   0.0000000000000000     
  -2.9784766494332304      -0.93490665810825402        0.0000000000000000     
  -1.9966495698159326       -1.0064171782210045        0.0000000000000000     
  -2.9782950391075875       -2.0296807155975935E-004   0.0000000000000000     
  -3.5118123621039015       -1.4065930430883031        0.0000000000000000     
  -3.0657972500304389       -1.4806808000394733        0.0000000000000000     
  -3.5335661502260254      -0.96087161113762365        0.0000000000000000     
  -2.4661654526621253       -1.4723201927323670        0.0000000000000000     
  -1.9928340561552151       -1.5753488002704865        0.0000000000000000     
  -2.5551850590644718       -1.0426457753874021        0.0000000000000000     
  -2.2174982421574541       -1.2348846382089078        0.0000000000000000     
  -1.9947374294313174       -1.2527503813280896        0.0000000000000000     
  -2.2476589933707567       -1.0240859725907905        0.0000000000000000     
  -3.4613279310148362      -0.53426246674921263        0.0000000000000000     
  -3.1008565592605208      -0.48884894747160623        0.0000000000000000     
  -2.4864036867639343      -0.46787620543796021        0.0000000000000000     
  -1.9999233794461198      -0.50260467592714619        0.0000000000000000     
  -2.4927560385679421       -1.9403839257569045E-003   0.0000000000000000     
  -2.7380340356893762      -0.70490132768563485        0.0000000000000000     
  -2.5222205308694896      -0.74013273585852746        0.0000000000000000     
  -2.7615731389238332      -0.48377999884623918        0.0000000000000000     
  -2.2301497252062270      -0.73556329714516377        0.0000000000000000     
  -1.9957191854638354      -0.78716520471269147        0.0000000000000000     
  -2.2753547724604450      -0.52030996901624316        0.0000000000000000     
  -2.1081363236657733      -0.61698276198860902        0.0000000000000000     
  -1.9974024145754761      -0.62585152335160077        0.0000000000000000     
  -2.1233636375210114      -0.51081474677510041        0.0000000000000000     
  -2.7387612564759318      -0.27008644950979221        0.0000000000000000     
  -2.5547084497395964      -0.24566152361393825        0.0000000000000000     
  -2.2397508000163686      -0.23179501194576221        0.0000000000000000     
  -2.0013868476727774      -0.23773460784795003        0.0000000000000000     