 VARIABLES = "X", "Y", "Z", "Material ID"
 ZONE F=FEPOINT, ET=QUADRILATERAL, N=        1273 E=        1164
  -30.000000000000000       -30.000000000000000        0.0000000000000000                1
  -26.000000000000000       -30.000000000000000        0.0000000000000000                1
  -22.000000000000000       -30.000000000000000        0.0000000000000000                1
  -18.000000000000000       -30.000000000000000        0.0000000000000000                1
  -14.000000000000000       -30.000000000000000        0.0000000000000000                1
  -10.000000000000000       -30.000000000000000        0.0000000000000000                1
  -6.0000000000000000       -30.000000000000000        0.0000000000000000                1
  -2.0000000000000000       -30.000000000000000        0.0000000000000000                1
   2.0000000000000000       -30.000000000000000        0.0000000000000000                1
   6.0000000000000000       -30.000000000000000        0.0000000000000000                1
   10.000000000000000       -30.000000000000000        0.0000000000000000                1
   14.000000000000000       -30.000000000000000        0.0000000000000000                1
   18.000000000000000       -30.000000000000000        0.0000000000000000                1
   22.000000000000000       -30.000000000000000        0.0000000000000000                1
   26.000000000000000       -30.000000000000000        0.0000000000000000                1
   30.000000000000000       -30.000000000000000        0.0000000000000000                1
  -30.000000000000000       -26.000000000000000        0.0000000000000000                1
  -25.999815218870125       -25.999815236179039        0.0000000000000000                1
  -21.999392989477737       -25.999465896569024        0.0000000000000000                1
  -17.998615884608551       -25.998948228816023        0.0000000000000000                1
  -13.997723743837584       -25.998477708892064        0.0000000000000000                1
  -9.9972890771372800       -25.998246202394824        0.0000000000000000                1
  -5.9976985252464772       -25.998170353743966        0.0000000000000000                1
  -1.9987757280759484       -25.998088462849800        0.0000000000000000                1
   1.9999042632657824       -25.998041492392456        0.0000000000000000                1
   5.9986098468708482       -25.998108656939131        0.0000000000000000                1
   9.9975928864595680       -25.998200425776524        0.0000000000000000                1
   13.997243416884455       -25.998273871233248        0.0000000000000000                1
   17.997714407962462       -25.998497187884961        0.0000000000000000                1
   21.998624541753752       -25.998966327627794        0.0000000000000000                1
   25.999437872908288       -25.999517615564024        0.0000000000000000                1
   30.000000000000000       -26.000000000000000        0.0000000000000000                1
  -30.000000000000000       -22.000000000000000        0.0000000000000000                1
  -25.999466646776412       -21.999394024564431        0.0000000000000000                1
  -21.998007472922943       -21.998008016680327        0.0000000000000000                1
  -17.994831567212401       -21.995645523454137        0.0000000000000000                1
  -13.990696749672118       -21.993485669762180        0.0000000000000000                1
  -9.9884738159377644       -21.992824575807422        0.0000000000000000                1
  -5.9903083177675134       -21.993012116846927        0.0000000000000000                1
  -1.9950752162379091       -21.992796678416024        0.0000000000000000                1
   1.9995157521827753       -21.992544768929321        0.0000000000000000                1
   5.9942588549705027       -21.992908202976491        0.0000000000000000                1
   9.9898403662820936       -21.993180948717900        0.0000000000000000                1
   13.988325050904567       -21.992982415086860        0.0000000000000000                1
   17.990703220604694       -21.993592881122350        0.0000000000000000                1
   21.994877162307862       -21.995718575683995        0.0000000000000000                1
   25.998132798160849       -21.998164932632761        0.0000000000000000                1
   30.000000000000000       -22.000000000000000        0.0000000000000000                1
  -30.000000000000000       -18.000000000000000        0.0000000000000000                1
  -25.998955069669773       -17.998625345392202        0.0000000000000000                1
  -21.995659168182890       -17.994852085070235        0.0000000000000000                1
  -17.986221458210117       -17.986231144733495        0.0000000000000000                1
  -13.970583722411009       -17.977193196017677        0.0000000000000000                1
  -9.9607746576309228       -17.976432266005222        0.0000000000000000                1
  -5.9679404485158711       -17.979675417878902        0.0000000000000000                1
  -1.9853609468167579       -17.978626674554640        0.0000000000000000                1
   1.9980772185470879       -17.976949476612759        0.0000000000000000                1
   5.9822439520119008       -17.979097784379519        0.0000000000000000                1
   9.9664629978368708       -17.980413730445825        0.0000000000000000                1
   13.960634682133330       -17.977148887340686        0.0000000000000000                1
   17.970856201065327       -17.977666249872165        0.0000000000000000                1
   21.986423209655356       -17.986473295136424        0.0000000000000000                1
   25.995918801352307       -17.995193189840684        0.0000000000000000                1
   30.000000000000000       -18.000000000000000        0.0000000000000000                1
  -30.000000000000000       -14.000000000000000        0.0000000000000000                1
  -25.998514412673781       -13.997779485187175        0.0000000000000000                1
  -21.993583594866461       -13.990844838728725        0.0000000000000000                1
  -17.977338175302517       -13.970825431386624        0.0000000000000000                1
  -13.925734171222480       -13.925836589423572        0.0000000000000000                1
  -9.8807079238199087       -13.932817855835545        0.0000000000000000                1
  -5.9121886729052466       -13.959174039844553        0.0000000000000000                1
  -1.9701592830762864       -13.943130394424537        0.0000000000000000                1
   1.9936684966954519       -13.938545110673346        0.0000000000000000                1
   5.9601942046640346       -13.944707623104000        0.0000000000000000                1
   9.9090590884834437       -13.961736709411388        0.0000000000000000                1
   13.882314337062063       -13.935548640302384        0.0000000000000000                1
   17.927291499540857       -13.927518195739545        0.0000000000000000                1
   21.977963594865543       -13.971417892095015        0.0000000000000000                1
   25.994027684902051       -13.991395180242243        0.0000000000000000                1
   30.000000000000000       -14.000000000000000        0.0000000000000000                1
  -30.000000000000000       -10.000000000000000        0.0000000000000000                1
  -25.998379370428847       -9.9975223978004717        0.0000000000000000                1
  -21.993241584296953       -9.9891834695269885        0.0000000000000000                1
  -17.977281846536616       -9.9621959682062666        0.0000000000000000                1
  -13.933793144302408       -9.8824818332243609        0.0000000000000000                1
  -9.5450232332187337       -9.5455721279245065        0.0000000000000000                1
  -5.8643490755527896       -10.403807441032905        0.0000000000000000                1
  -1.9598577498240051       -9.3527032423654415        0.0000000000000000                1
   1.9865119134503075       -10.372309408873337        0.0000000000000000                1
   5.9227304320731902       -9.3578647298918991        0.0000000000000000                1
   9.8672446181761782       -10.409121888168448        0.0000000000000000                1
   13.556461600556778       -9.5565637197563813        0.0000000000000000                1
   17.937928225168562       -9.8860263865094229        0.0000000000000000                1
   21.978703093920288       -9.9631454699514581        0.0000000000000000                1
   25.993906613057657       -9.9898089587980117        0.0000000000000000                1
   30.000000000000000       -10.000000000000000        0.0000000000000000                1
  -30.000000000000000       -6.0000000000000000        0.0000000000000000                1
  -25.998491504756462       -5.9983919378179840        0.0000000000000000                1
  -21.994196744499860       -5.9927422179317213        0.0000000000000000                1
  -17.982650600679598       -5.9736800437647606        0.0000000000000000                1
  -13.963874192587442       -5.9208002055987921        0.0000000000000000                1
  -10.407942301622754       -5.8716765050366515        0.0000000000000000                1
  -5.7574893328720238       -5.7582278330521408        0.0000000000000000                1
  -1.9762330257036547       -5.8749544357416266        0.0000000000000000                1
   1.9832407058886974       -5.6955571646841614        0.0000000000000000                1
   5.7557558243823692       -6.0262159376773337        0.0000000000000000                1
   9.9409553271094619       -5.9243535586514868        0.0000000000000000                1
   14.425269330390741       -5.8865297788426263        0.0000000000000000                1
   17.971845508248428       -5.9246346412653921        0.0000000000000000                1
   21.985121881977513       -5.9744460127255525        0.0000000000000000                1
   25.995097344195973       -5.9931142092653795        0.0000000000000000                1
   30.000000000000000       -6.0000000000000000        0.0000000000000000                1
  -30.000000000000000       -2.0000000000000000        0.0000000000000000                1
  -25.998578123052408       -2.0002172110413703        0.0000000000000000                1
  -21.994832200606560       -2.0008622906298412        0.0000000000000000                1
  -17.985457681472766       -2.0021335414968924        0.0000000000000000                1
  -13.958054829577222       -2.0016527664684305        0.0000000000000000                1
  -9.3677158772296423       -1.9883796184295901        0.0000000000000000                1
  -5.8652427409852610       -1.9656830837178880        0.0000000000000000                1
  -1.9940105197884783       -2.0152879318367369        0.0000000000000000                1
   2.0006937919300416       -2.0001447618240498        0.0000000000000000                1
   6.0231911446950219       -1.9874116235066912        0.0000000000000000                1
   10.257050725887813       -1.9680285580367758        0.0000000000000000                1
   13.405519612880772       -1.9937853695113839        0.0000000000000000                1
   17.969154544030118       -2.0017163747536526        0.0000000000000000                1
   21.988853292276961       -2.0015609299389512        0.0000000000000000                1
   25.995951723017274       -2.0005828691136496        0.0000000000000000                1
   30.000000000000000       -2.0000000000000000        0.0000000000000000                1
  -30.000000000000000        2.0000000000000000        0.0000000000000000                1
  -25.998465698242693        1.9978714596993232        0.0000000000000000                1
  -21.994200947373329        1.9904623005724369        0.0000000000000000                1
  -17.983568493238550        1.9666227494825610        0.0000000000000000                1
  -13.971312672383126        1.9062241085340050        0.0000000000000000                1
  -10.435538199507594        1.8621051465211997        0.0000000000000000                1
  -5.7034478502369597        1.9533592290694142        0.0000000000000000                1
  -1.9931500936931676        2.0142154432256252        0.0000000000000000                1
   2.0201937901196843        1.8439702211988769        0.0000000000000000                1
   5.9846630631847990        1.9709875260179828        0.0000000000000000                1
   10.020141466571896        1.9567746558081367        0.0000000000000000                1
   14.459049972765582        1.8776356612305809        0.0000000000000000                1
   17.983472586439824        1.9147284037481125        0.0000000000000000                1
   21.987576816858347        1.9695389665676926        0.0000000000000000                1
   25.995493661633333        1.9915733725730300        0.0000000000000000                1
   30.000000000000000        2.0000000000000000        0.0000000000000000                1
  -30.000000000000000        6.0000000000000000        0.0000000000000000                1
  -25.998266501189732        5.9968418623757058        0.0000000000000000                1
  -21.992766560945959        5.9858631873740524        0.0000000000000000                1
  -17.976152645314443        5.9498646204579098        0.0000000000000000                1
  -13.934997964299667        5.8457150899288832        0.0000000000000000                1
  -9.5911519634090325        5.4520657144067552        0.0000000000000000                1
  -6.0671631415695693        6.0669950504413048        0.0000000000000000                1
  -1.9869456647033079        5.7306599164768928        0.0000000000000000                1
   1.7821824002998083        6.0269322216145911        0.0000000000000000                1
   5.9439750913811000        5.9943264151160198        0.0000000000000000                1
   10.312122471387818        6.3112428297568197        0.0000000000000000                1
   13.626107288139943        5.5052432958925248        0.0000000000000000                1
   17.948514617125227        5.8618527630016857        0.0000000000000000                1
   21.980444157487732        5.9546082114877024        0.0000000000000000                1
   25.994124902584044        5.9875250443472021        0.0000000000000000                1
   30.000000000000000        6.0000000000000000        0.0000000000000000                1
  -30.000000000000000        10.000000000000000        0.0000000000000000                1
  -25.998286842808259        9.9970486792040436        0.0000000000000000                1
  -21.992367165475336        9.9871594944906565        0.0000000000000000                1
  -17.972248297033488        9.9565398766648183        0.0000000000000000                1
  -13.907554352264379        9.8806991864309097        0.0000000000000000                1
  -9.8048653604310267        9.8044818273211263        0.0000000000000000                1
  -5.4569251390149400        9.5940986924729916        0.0000000000000000                1
  -1.8755651251140111        10.444315463401818        0.0000000000000000                1
   1.9589550166727239        9.3879044642863150        0.0000000000000000                1
   5.8626450129447143        10.448355484991895        0.0000000000000000                1
   9.5014657678258363        9.6224319931301778        0.0000000000000000                1
   13.843156733877612        9.8432273075430246        0.0000000000000000                1
   17.920182592858424        9.8953930438155009        0.0000000000000000                1
   21.976071384868419        9.9610725605382324        0.0000000000000000                1
   25.993579542730902        9.9887656945490377        0.0000000000000000                1
   30.000000000000000        10.000000000000000        0.0000000000000000                1
  -30.000000000000000        14.000000000000000        0.0000000000000000                1
  -25.998677366359107        13.998027978398300        0.0000000000000000                1
  -21.994115806487436        13.991902286453573        0.0000000000000000                1
  -17.979431723922684        13.975228439718633        0.0000000000000000                1
  -13.945374048814893        13.945300066949825        0.0000000000000000                1
  -9.8813840196743161        13.907804138631709        0.0000000000000000                1
  -5.8483028249907898        13.936347092151808        0.0000000000000000                1
  -1.9126187610723258        13.975125457380546        0.0000000000000000                1
   1.9920523841683997        13.966649842774199        0.0000000000000000                1
   5.9075670491684784        13.979699626612014        0.0000000000000000                1
   9.8592128119707247        13.946783460199699        0.0000000000000000                1
   13.894792664071950        13.919788736149227        0.0000000000000000                1
   17.952709099719865        13.952746935119295        0.0000000000000000                1
   21.981920437717747        13.978002215954621        0.0000000000000000                1
   25.994967164671202        13.992990498375782        0.0000000000000000                1
   30.000000000000000        14.000000000000000        0.0000000000000000                1
  -30.000000000000000        18.000000000000000        0.0000000000000000                1
  -25.999238203214063        17.999026057462846        0.0000000000000000                1
  -21.996790063437874        17.996300524076307        0.0000000000000000                1
  -17.989868189025987        17.989860525016496        0.0000000000000000                1
  -13.975301786744467        17.979448361542833        0.0000000000000000                1
  -9.9568808966743241        17.972388990424015        0.0000000000000000                1
  -5.9509123625216755        17.976656058952720        0.0000000000000000                1
  -1.9688503830037660        17.984894668921683        0.0000000000000000                1
   1.9984197446190284        17.988245116308018        0.0000000000000000                1
   5.9678076427366289        17.986607793986355        0.0000000000000000                1
   9.9534784962386169        17.979812732738754        0.0000000000000000                1
   13.960657965175541        17.975831612899775        0.0000000000000000                1
   17.977883341744334        17.981858637978647        0.0000000000000000                1
   21.990974315508900        17.990988801648658        0.0000000000000000                1
   25.997237201252108        17.996829477982374        0.0000000000000000                1
   30.000000000000000        18.000000000000000        0.0000000000000000                1
  -30.000000000000000        22.000000000000000        0.0000000000000000                1
  -25.999676518126574        21.999639314839122        0.0000000000000000                1
  -21.998734131630350        21.998733642283710        0.0000000000000000                1
  -17.996305920478640        21.996790934687095        0.0000000000000000                1
  -13.991932979212466        21.994126517052738        0.0000000000000000                1
  -9.9872764402759060        21.992414567103996        0.0000000000000000                1
  -5.9861797955612275        21.992913845721059        0.0000000000000000                1
  -1.9911152167067747        21.994560743144717        0.0000000000000000                1
   1.9997241023814234        21.995494777803874        0.0000000000000000                1
   5.9909472956123242        21.994998119217531        0.0000000000000000                1
   9.9867163442458438        21.993667688380420        0.0000000000000000                1
   13.988129313225699        21.993221913792926        0.0000000000000000                1
   17.992598181981407        21.994724805706579        0.0000000000000000                1
   21.996643523732359        21.997111794687424        0.0000000000000000                1
   25.998906063735973        21.998920697727339        0.0000000000000000                1
   30.000000000000000        22.000000000000000        0.0000000000000000                1
  -30.000000000000000        26.000000000000000        0.0000000000000000                1
  -25.999901736604457        25.999901717603791        0.0000000000000000                1
  -21.999639570321566        25.999676550038458        0.0000000000000000                1
  -17.999027860703883        25.999238773636968        0.0000000000000000                1
  -13.998036497153397        25.998680473144862        0.0000000000000000                1
  -9.9970773363026897        25.998298304598251        0.0000000000000000                1
  -5.9969142249123815        25.998299132392731        0.0000000000000000                1
  -1.9980184440000246        25.998538222741125        0.0000000000000000                1
   1.9999604883896520        25.998697175616218        0.0000000000000000                1
   5.9979972744120786        25.998619557855442        0.0000000000000000                1
   9.9970043896632230        25.998436012713302        0.0000000000000000                1
   13.997226646761085        25.998444540880712        0.0000000000000000                1
   17.998163725702469        25.998793127819098        0.0000000000000000                1
   21.999101509587856        25.999305570195201        0.0000000000000000                1
   25.999686766564771        25.999724348408034        0.0000000000000000                1
   30.000000000000000        26.000000000000000        0.0000000000000000                1
  -30.000000000000000        30.000000000000000        0.0000000000000000                1
  -26.000000000000000        30.000000000000000        0.0000000000000000                1
  -22.000000000000000        30.000000000000000        0.0000000000000000                1
  -18.000000000000000        30.000000000000000        0.0000000000000000                1
  -14.000000000000000        30.000000000000000        0.0000000000000000                1
  -10.000000000000000        30.000000000000000        0.0000000000000000                1
  -6.0000000000000000        30.000000000000000        0.0000000000000000                1
  -2.0000000000000000        30.000000000000000        0.0000000000000000                1
   2.0000000000000000        30.000000000000000        0.0000000000000000                1
   6.0000000000000000        30.000000000000000        0.0000000000000000                1
   10.000000000000000        30.000000000000000        0.0000000000000000                1
   14.000000000000000        30.000000000000000        0.0000000000000000                1
   18.000000000000000        30.000000000000000        0.0000000000000000                1
   22.000000000000000        30.000000000000000        0.0000000000000000                1
   26.000000000000000        30.000000000000000        0.0000000000000000                1
   30.000000000000000        30.000000000000000        0.0000000000000000                1
  -7.6448877574707303       -7.6452300836497979        0.0000000000000000                1
  -5.8624368670223674       -7.8586017348755428        0.0000000000000000                1
  -7.8599890856235906       -5.8652863114831151        0.0000000000000000                1
  -4.1462812932116879       -7.6978362854477709        0.0000000000000000                1
  -3.9668346712634954       -6.3182669348371379        0.0000000000000000                1
  0.23259807233496510       -7.6821256802153997        0.0000000000000000                1
   1.9807917023778729       -7.8681712541386606        0.0000000000000000                1
   4.2631894787898007E-002  -6.3044818547469932        0.0000000000000000                1
   3.7136998149751665       -7.7082030881684354        0.0000000000000000                1
   3.8933809588744364       -6.3457697388966148        0.0000000000000000                1
   8.1432062116764037       -7.6750505031176735        0.0000000000000000                1
   9.8980370373343458       -7.8696948482700293        0.0000000000000000                1
   7.9699038876411725       -6.0363798051487967        0.0000000000000000                1
   11.680456997709419       -7.6780828921191544        0.0000000000000000                1
   11.889578389698462       -5.9083741978568582        0.0000000000000000                1
  -7.6995852526265685       -4.1499281912067731        0.0000000000000000                1
  -6.3151109383187878       -3.9657408055257974        0.0000000000000000                1
  -3.9921277564171604       -4.0014662179366924        0.0000000000000000                1
  -1.9800836050792781       -4.1861195165128109        0.0000000000000000                1
  -4.0630262623800570       -1.8785845910267378        0.0000000000000000                1
  -4.8692138674610437       -4.8709126643288139        0.0000000000000000                1
  -3.9710820656554926       -5.0027779964225711        0.0000000000000000                1
  -4.9941224652821159       -3.9692005718942140        0.0000000000000000                1
  -3.0976915057856882       -4.9429625907531340        0.0000000000000000                1
  -2.9993621296052049       -4.1016128593500936        0.0000000000000000                1
  -4.9186472656726270       -3.0834312636955126        0.0000000000000000                1
  -4.0656466055374132       -2.9981000040448063        0.0000000000000000                1
  -2.9161112806882223       -2.9539285714330905        0.0000000000000000                1
  -1.9770911114676979       -3.1820227959763558        0.0000000000000000                1
  -3.1292099471000947       -2.0906458566390214        0.0000000000000000                1
  -2.4343897321394619       -2.4763603217514469        0.0000000000000000                1
  -1.9864344391728292       -2.5132097874040635        0.0000000000000000                1
  -2.5000655994000938       -2.0510909844822205        0.0000000000000000                1
   4.2570958662933745E-003  -4.0168028290999311        0.0000000000000000                1
   1.9937309727770651       -4.1274136463724505        0.0000000000000000                1
   3.9586754287528140E-004  -1.9904479573924465        0.0000000000000000                1
 -0.87254249788766247       -4.9423047278620640        0.0000000000000000                1
   1.0108724084209026E-002  -5.0057491497838864        0.0000000000000000                1
 -0.97129998835714926       -4.1036360974218118        0.0000000000000000                1
  0.88841826086477926       -4.8899384514247402        0.0000000000000000                1
  0.98094428642943454       -4.0668084529901547        0.0000000000000000                1
 -0.99318891963900968       -2.8906226066129848        0.0000000000000000                1
   2.2183972057922257E-003  -3.1313638461982092        0.0000000000000000                1
  -1.0064213959855595       -2.0737864706140989        0.0000000000000000                1
  -1.5509696046863826       -2.4578908607214700        0.0000000000000000                1
  -1.5078597873702573       -2.0426297348448483        0.0000000000000000                1
 -0.44407984970664904       -2.4440550139001278        0.0000000000000000                1
   1.0194007423502403E-003  -2.4859697436289272        0.0000000000000000                1
 -0.50051522841638851       -2.0321538765146787        0.0000000000000000                1
   1.0000181400840100       -2.8765744089325680        0.0000000000000000                1
   1.9973708141608746       -3.1480677224016316        0.0000000000000000                1
   1.0091934057385412       -2.0689342094162666        0.0000000000000000                1
  0.44610700174538442       -2.4410468651812232        0.0000000000000000                1
  0.50183546684224234       -2.0300070899815346        0.0000000000000000                1
   1.5584800334760647       -2.4455515777749008        0.0000000000000000                1
   1.9993243628951856       -2.4912605720746197        0.0000000000000000                1
   1.5130308962483034       -2.0340316434419567        0.0000000000000000                1
   3.9749451538600433       -4.0428047589287006        0.0000000000000000                1
   6.1757042015239367       -4.2334035308045177        0.0000000000000000                1
   3.9874667314397856       -1.9929816457274199        0.0000000000000000                1
   3.0879238360640326       -4.9053878615165010        0.0000000000000000                1
   3.9477023739794395       -5.0436712397095906        0.0000000000000000                1
   3.0039902281954771       -4.0777499848643135        0.0000000000000000                1
   4.8320911926302603       -5.0023932655184620        0.0000000000000000                1
   4.9711437391175632       -4.1366231439897030        0.0000000000000000                1
   2.9930692525328118       -2.8821705630811074        0.0000000000000000                1
   3.9789908807058874       -3.1493293464324452        0.0000000000000000                1
   2.9901927342961310       -2.0708745150532790        0.0000000000000000                1
   2.4402730880365686       -2.4466892798780742        0.0000000000000000                1
   2.4877197388037384       -2.0345338612074526        0.0000000000000000                1
   3.5471508511309500       -2.4459237507423071        0.0000000000000000                1
   3.9848337827271036       -2.4910150401547440        0.0000000000000000                1