  TITLE = "SEM Quad mesh" 
  VARIABLES = "x","y", "z"
 ZONE I=          10 ,J=          10 , F=POINT
 -0.19213E+01  0.19717E+01  0.00000E+00
 -0.18776E+01  0.19589E+01  0.00000E+00
 -0.17518E+01  0.19219E+01  0.00000E+00
 -0.15591E+01  0.18653E+01  0.00000E+00
 -0.13227E+01  0.17959E+01  0.00000E+00
 -0.10711E+01  0.17219E+01  0.00000E+00
 -0.83469E+00  0.16525E+01  0.00000E+00
 -0.64197E+00  0.15959E+01  0.00000E+00
 -0.51618E+00  0.15589E+01  0.00000E+00
 -0.47250E+00  0.15461E+01  0.00000E+00
 -0.19156E+01  0.20134E+01  0.00000E+00
 -0.18721E+01  0.20008E+01  0.00000E+00
 -0.17468E+01  0.19646E+01  0.00000E+00
 -0.15547E+01  0.19090E+01  0.00000E+00
 -0.13192E+01  0.18408E+01  0.00000E+00
 -0.10685E+01  0.17682E+01  0.00000E+00
 -0.83290E+00  0.17000E+01  0.00000E+00
 -0.64086E+00  0.16444E+01  0.00000E+00
 -0.51551E+00  0.16082E+01  0.00000E+00
 -0.47198E+00  0.15956E+01  0.00000E+00
 -0.18994E+01  0.21336E+01  0.00000E+00
 -0.18563E+01  0.21217E+01  0.00000E+00
 -0.17323E+01  0.20874E+01  0.00000E+00
 -0.15422E+01  0.20347E+01  0.00000E+00
 -0.13090E+01  0.19702E+01  0.00000E+00
 -0.10609E+01  0.19015E+01  0.00000E+00
 -0.82773E+00  0.18369E+01  0.00000E+00
 -0.63765E+00  0.17843E+01  0.00000E+00
 -0.51359E+00  0.17499E+01  0.00000E+00
 -0.47050E+00  0.17380E+01  0.00000E+00
 -0.18746E+01  0.23178E+01  0.00000E+00
 -0.18322E+01  0.23069E+01  0.00000E+00
 -0.17101E+01  0.22755E+01  0.00000E+00
 -0.15230E+01  0.22274E+01  0.00000E+00
 -0.12935E+01  0.21684E+01  0.00000E+00
 -0.10493E+01  0.21056E+01  0.00000E+00
 -0.81982E+00  0.20466E+01  0.00000E+00
 -0.63274E+00  0.19985E+01  0.00000E+00
 -0.51064E+00  0.19671E+01  0.00000E+00
 -0.46823E+00  0.19562E+01  0.00000E+00
 -0.18441E+01  0.25437E+01  0.00000E+00
 -0.18025E+01  0.25341E+01  0.00000E+00
 -0.16828E+01  0.25063E+01  0.00000E+00
 -0.14994E+01  0.24637E+01  0.00000E+00
 -0.12745E+01  0.24115E+01  0.00000E+00
 -0.10351E+01  0.23560E+01  0.00000E+00
 -0.81011E+00  0.23038E+01  0.00000E+00
 -0.62672E+00  0.22612E+01  0.00000E+00
 -0.50702E+00  0.22335E+01  0.00000E+00
 -0.46545E+00  0.22238E+01  0.00000E+00
 -0.18116E+01  0.27841E+01  0.00000E+00
 -0.17709E+01  0.27758E+01  0.00000E+00
 -0.16538E+01  0.27519E+01  0.00000E+00
 -0.14743E+01  0.27152E+01  0.00000E+00
 -0.12542E+01  0.26703E+01  0.00000E+00
 -0.10199E+01  0.26225E+01  0.00000E+00
 -0.79977E+00  0.25775E+01  0.00000E+00
 -0.62031E+00  0.25409E+01  0.00000E+00
 -0.50317E+00  0.25170E+01  0.00000E+00
 -0.46249E+00  0.25087E+01  0.00000E+00
 -0.17811E+01  0.30100E+01  0.00000E+00
 -0.17413E+01  0.30030E+01  0.00000E+00
 -0.16265E+01  0.29827E+01  0.00000E+00
 -0.14508E+01  0.29516E+01  0.00000E+00
 -0.12351E+01  0.29135E+01  0.00000E+00
 -0.10057E+01  0.28729E+01  0.00000E+00
 -0.79006E+00  0.28347E+01  0.00000E+00
 -0.61429E+00  0.28037E+01  0.00000E+00
 -0.49956E+00  0.27834E+01  0.00000E+00
 -0.45971E+00  0.27763E+01  0.00000E+00
 -0.17563E+01  0.31942E+01  0.00000E+00
 -0.17171E+01  0.31881E+01  0.00000E+00
 -0.16043E+01  0.31708E+01  0.00000E+00
 -0.14316E+01  0.31442E+01  0.00000E+00
 -0.12196E+01  0.31117E+01  0.00000E+00
 -0.99408E+00  0.30770E+01  0.00000E+00
 -0.78215E+00  0.30444E+01  0.00000E+00
 -0.60938E+00  0.30179E+01  0.00000E+00
 -0.49661E+00  0.30005E+01  0.00000E+00
 -0.45745E+00  0.29945E+01  0.00000E+00
 -0.17400E+01  0.33144E+01  0.00000E+00
 -0.17013E+01  0.33090E+01  0.00000E+00
 -0.15898E+01  0.32936E+01  0.00000E+00
 -0.14190E+01  0.32700E+01  0.00000E+00
 -0.12095E+01  0.32411E+01  0.00000E+00
 -0.98651E+00  0.32102E+01  0.00000E+00
 -0.77698E+00  0.31813E+01  0.00000E+00
 -0.60617E+00  0.31577E+01  0.00000E+00
 -0.49469E+00  0.31423E+01  0.00000E+00
 -0.45597E+00  0.31369E+01  0.00000E+00
 -0.17344E+01  0.33561E+01  0.00000E+00
 -0.16958E+01  0.33510E+01  0.00000E+00
 -0.15848E+01  0.33362E+01  0.00000E+00
 -0.14147E+01  0.33137E+01  0.00000E+00
 -0.12060E+01  0.32860E+01  0.00000E+00
 -0.98388E+00  0.32565E+01  0.00000E+00
 -0.77519E+00  0.32288E+01  0.00000E+00
 -0.60506E+00  0.32063E+01  0.00000E+00
 -0.49402E+00  0.31915E+01  0.00000E+00
 -0.45545E+00  0.31864E+01  0.00000E+00
 ZONE I=          10 ,J=          10 , F=POINT
 -0.47250E+00  0.15461E+01  0.00000E+00
 -0.43360E+00  0.15592E+01  0.00000E+00
 -0.32159E+00  0.15968E+01  0.00000E+00
 -0.14999E+00  0.16546E+01  0.00000E+00
  0.60517E-01  0.17254E+01  0.00000E+00
  0.28453E+00  0.18007E+01  0.00000E+00
  0.49503E+00  0.18715E+01  0.00000E+00
  0.66664E+00  0.19292E+01  0.00000E+00
  0.77864E+00  0.19669E+01  0.00000E+00
  0.81754E+00  0.19800E+01  0.00000E+00
 -0.47198E+00  0.15956E+01  0.00000E+00
 -0.43319E+00  0.16082E+01  0.00000E+00
 -0.32148E+00  0.16445E+01  0.00000E+00
 -0.15033E+00  0.17002E+01  0.00000E+00
  0.59605E-01  0.17685E+01  0.00000E+00
  0.28302E+00  0.18413E+01  0.00000E+00
  0.49296E+00  0.19096E+01  0.00000E+00
  0.66410E+00  0.19653E+01  0.00000E+00
  0.77581E+00  0.20016E+01  0.00000E+00
  0.81460E+00  0.20143E+01  0.00000E+00
 -0.47050E+00  0.17380E+01  0.00000E+00
 -0.43201E+00  0.17493E+01  0.00000E+00
 -0.32116E+00  0.17818E+01  0.00000E+00
 -0.15134E+00  0.18317E+01  0.00000E+00
  0.56977E-01  0.18929E+01  0.00000E+00
  0.27866E+00  0.19580E+01  0.00000E+00
  0.48698E+00  0.20192E+01  0.00000E+00
  0.65680E+00  0.20691E+01  0.00000E+00
  0.76765E+00  0.21016E+01  0.00000E+00
  0.80614E+00  0.21129E+01  0.00000E+00
 -0.46823E+00  0.19562E+01  0.00000E+00
 -0.43020E+00  0.19655E+01  0.00000E+00
 -0.32068E+00  0.19922E+01  0.00000E+00
 -0.15288E+00  0.20332E+01  0.00000E+00
  0.52950E-01  0.20834E+01  0.00000E+00
  0.27199E+00  0.21369E+01  0.00000E+00
  0.47782E+00  0.21871E+01  0.00000E+00
  0.64562E+00  0.22281E+01  0.00000E+00
  0.75514E+00  0.22548E+01  0.00000E+00
  0.79318E+00  0.22641E+01  0.00000E+00
 -0.46545E+00  0.22238E+01  0.00000E+00
 -0.42798E+00  0.22306E+01  0.00000E+00
 -0.32008E+00  0.22502E+01  0.00000E+00
 -0.15477E+00  0.22803E+01  0.00000E+00
  0.48011E-01  0.23171E+01  0.00000E+00
  0.26381E+00  0.23563E+01  0.00000E+00
  0.46659E+00  0.23931E+01  0.00000E+00
  0.63190E+00  0.24231E+01  0.00000E+00
  0.73980E+00  0.24427E+01  0.00000E+00
  0.77727E+00  0.24495E+01  0.00000E+00
 -0.46249E+00  0.25087E+01  0.00000E+00
 -0.42562E+00  0.25128E+01  0.00000E+00
 -0.31945E+00  0.25248E+01  0.00000E+00
 -0.15678E+00  0.25432E+01  0.00000E+00
  0.42755E-01  0.25658E+01  0.00000E+00
  0.25510E+00  0.25898E+01  0.00000E+00
  0.45464E+00  0.26123E+01  0.00000E+00
  0.61730E+00  0.26307E+01  0.00000E+00
  0.72347E+00  0.26427E+01  0.00000E+00
  0.76035E+00  0.26469E+01  0.00000E+00
 -0.45971E+00  0.27763E+01  0.00000E+00
 -0.42340E+00  0.27780E+01  0.00000E+00
 -0.31885E+00  0.27829E+01  0.00000E+00
 -0.15867E+00  0.27903E+01  0.00000E+00
  0.37816E-01  0.27995E+01  0.00000E+00
  0.24692E+00  0.28092E+01  0.00000E+00
  0.44340E+00  0.28183E+01  0.00000E+00
  0.60358E+00  0.28258E+01  0.00000E+00
  0.70813E+00  0.28306E+01  0.00000E+00
  0.74444E+00  0.28323E+01  0.00000E+00
 -0.45745E+00  0.29945E+01  0.00000E+00
 -0.42160E+00  0.29942E+01  0.00000E+00
 -0.31837E+00  0.29932E+01  0.00000E+00
 -0.16021E+00  0.29918E+01  0.00000E+00
  0.33789E-01  0.29900E+01  0.00000E+00
  0.24024E+00  0.29881E+01  0.00000E+00
  0.43425E+00  0.29863E+01  0.00000E+00
  0.59240E+00  0.29848E+01  0.00000E+00
  0.69563E+00  0.29838E+01  0.00000E+00
  0.73148E+00  0.29835E+01  0.00000E+00
 -0.45597E+00  0.31369E+01  0.00000E+00
 -0.42042E+00  0.31353E+01  0.00000E+00
 -0.31805E+00  0.31305E+01  0.00000E+00
 -0.16122E+00  0.31232E+01  0.00000E+00
  0.31161E-01  0.31143E+01  0.00000E+00
  0.23589E+00  0.31048E+01  0.00000E+00
  0.42827E+00  0.30959E+01  0.00000E+00
  0.58510E+00  0.30886E+01  0.00000E+00
  0.68747E+00  0.30838E+01  0.00000E+00
  0.72302E+00  0.30822E+01  0.00000E+00
 -0.45545E+00  0.31864E+01  0.00000E+00
 -0.42001E+00  0.31843E+01  0.00000E+00
 -0.31794E+00  0.31782E+01  0.00000E+00
 -0.16157E+00  0.31689E+01  0.00000E+00
  0.30248E-01  0.31575E+01  0.00000E+00
  0.23438E+00  0.31453E+01  0.00000E+00
  0.42619E+00  0.31339E+01  0.00000E+00
  0.58257E+00  0.31246E+01  0.00000E+00
  0.68463E+00  0.31185E+01  0.00000E+00
  0.72008E+00  0.31164E+01  0.00000E+00
 ZONE I=          10 ,J=          10 , F=POINT
 -0.17344E+01  0.33561E+01  0.00000E+00
 -0.16958E+01  0.33510E+01  0.00000E+00
 -0.15848E+01  0.33362E+01  0.00000E+00
 -0.14147E+01  0.33137E+01  0.00000E+00
 -0.12060E+01  0.32860E+01  0.00000E+00
 -0.98388E+00  0.32565E+01  0.00000E+00
 -0.77519E+00  0.32288E+01  0.00000E+00
 -0.60506E+00  0.32063E+01  0.00000E+00
 -0.49402E+00  0.31915E+01  0.00000E+00
 -0.45545E+00  0.31864E+01  0.00000E+00
 -0.17250E+01  0.33916E+01  0.00000E+00
 -0.16867E+01  0.33867E+01  0.00000E+00
 -0.15763E+01  0.33725E+01  0.00000E+00
 -0.14072E+01  0.33509E+01  0.00000E+00
 -0.11997E+01  0.33244E+01  0.00000E+00
 -0.97899E+00  0.32961E+01  0.00000E+00
 -0.77154E+00  0.32696E+01  0.00000E+00
 -0.60243E+00  0.32479E+01  0.00000E+00
 -0.49206E+00  0.32338E+01  0.00000E+00
 -0.45372E+00  0.32289E+01  0.00000E+00
 -0.16980E+01  0.34937E+01  0.00000E+00
 -0.16603E+01  0.34894E+01  0.00000E+00
 -0.15519E+01  0.34771E+01  0.00000E+00
 -0.13857E+01  0.34581E+01  0.00000E+00
 -0.11818E+01  0.34349E+01  0.00000E+00
 -0.96490E+00  0.34101E+01  0.00000E+00
 -0.76106E+00  0.33868E+01  0.00000E+00
 -0.59488E+00  0.33679E+01  0.00000E+00
 -0.48641E+00  0.33555E+01  0.00000E+00
 -0.44874E+00  0.33512E+01  0.00000E+00
 -0.16566E+01  0.36503E+01  0.00000E+00
 -0.16200E+01  0.36469E+01  0.00000E+00
 -0.15144E+01  0.36372E+01  0.00000E+00
 -0.13527E+01  0.36224E+01  0.00000E+00
 -0.11544E+01  0.36041E+01  0.00000E+00
 -0.94333E+00  0.35848E+01  0.00000E+00
 -0.74498E+00  0.35665E+01  0.00000E+00
 -0.58330E+00  0.35517E+01  0.00000E+00
 -0.47776E+00  0.35420E+01  0.00000E+00
 -0.44111E+00  0.35386E+01  0.00000E+00
 -0.16059E+01  0.38423E+01  0.00000E+00
 -0.15704E+01  0.38401E+01  0.00000E+00
 -0.14685E+01  0.38337E+01  0.00000E+00
 -0.13123E+01  0.38238E+01  0.00000E+00
 -0.11207E+01  0.38118E+01  0.00000E+00
 -0.91686E+00  0.37990E+01  0.00000E+00
 -0.72527E+00  0.37869E+01  0.00000E+00
 -0.56909E+00  0.37771E+01  0.00000E+00
 -0.46715E+00  0.37707E+01  0.00000E+00
 -0.43175E+00  0.37685E+01  0.00000E+00
 -0.15518E+01  0.40466E+01  0.00000E+00
 -0.15178E+01  0.40456E+01  0.00000E+00
 -0.14196E+01  0.40427E+01  0.00000E+00
 -0.12693E+01  0.40383E+01  0.00000E+00
 -0.10849E+01  0.40328E+01  0.00000E+00
 -0.88869E+00  0.40270E+01  0.00000E+00
 -0.70429E+00  0.40215E+01  0.00000E+00
 -0.55397E+00  0.40171E+01  0.00000E+00
 -0.45586E+00  0.40141E+01  0.00000E+00
 -0.42178E+00  0.40131E+01  0.00000E+00
 -0.15011E+01  0.42386E+01  0.00000E+00
 -0.14682E+01  0.42388E+01  0.00000E+00
 -0.13737E+01  0.42392E+01  0.00000E+00
 -0.12289E+01  0.42397E+01  0.00000E+00
 -0.10513E+01  0.42405E+01  0.00000E+00
 -0.86222E+00  0.42412E+01  0.00000E+00
 -0.68458E+00  0.42419E+01  0.00000E+00
 -0.53977E+00  0.42425E+01  0.00000E+00
 -0.44525E+00  0.42429E+01  0.00000E+00
 -0.41242E+00  0.42430E+01  0.00000E+00
 -0.14597E+01  0.43952E+01  0.00000E+00
 -0.14279E+01  0.43962E+01  0.00000E+00
 -0.13363E+01  0.43993E+01  0.00000E+00
 -0.11960E+01  0.44040E+01  0.00000E+00
 -0.10238E+01  0.44097E+01  0.00000E+00
 -0.84064E+00  0.44159E+01  0.00000E+00
 -0.66851E+00  0.44216E+01  0.00000E+00
 -0.52819E+00  0.44263E+01  0.00000E+00
 -0.43660E+00  0.44294E+01  0.00000E+00
 -0.40479E+00  0.44304E+01  0.00000E+00
 -0.14327E+01  0.44973E+01  0.00000E+00
 -0.14015E+01  0.44990E+01  0.00000E+00
 -0.13118E+01  0.45038E+01  0.00000E+00
 -0.11744E+01  0.45112E+01  0.00000E+00
 -0.10059E+01  0.45202E+01  0.00000E+00
 -0.82656E+00  0.45299E+01  0.00000E+00
 -0.65802E+00  0.45389E+01  0.00000E+00
 -0.52063E+00  0.45463E+01  0.00000E+00
 -0.43095E+00  0.45511E+01  0.00000E+00
 -0.39981E+00  0.45528E+01  0.00000E+00
 -0.14233E+01  0.45328E+01  0.00000E+00
 -0.13924E+01  0.45347E+01  0.00000E+00
 -0.13034E+01  0.45401E+01  0.00000E+00
 -0.11670E+01  0.45484E+01  0.00000E+00
 -0.99969E+00  0.45586E+01  0.00000E+00
 -0.82167E+00  0.45694E+01  0.00000E+00
 -0.65438E+00  0.45796E+01  0.00000E+00
 -0.51800E+00  0.45879E+01  0.00000E+00
 -0.42899E+00  0.45934E+01  0.00000E+00
 -0.39808E+00  0.45952E+01  0.00000E+00
 ZONE I=          10 ,J=          10 , F=POINT
 -0.45545E+00  0.31864E+01  0.00000E+00
 -0.42001E+00  0.31843E+01  0.00000E+00
 -0.31794E+00  0.31782E+01  0.00000E+00
 -0.16157E+00  0.31689E+01  0.00000E+00
  0.30248E-01  0.31575E+01  0.00000E+00
  0.23438E+00  0.31453E+01  0.00000E+00
  0.42619E+00  0.31339E+01  0.00000E+00
  0.58257E+00  0.31246E+01  0.00000E+00
  0.68463E+00  0.31185E+01  0.00000E+00
  0.72008E+00  0.31164E+01  0.00000E+00
 -0.45372E+00  0.32289E+01  0.00000E+00
 -0.41812E+00  0.32267E+01  0.00000E+00
 -0.31562E+00  0.32206E+01  0.00000E+00
 -0.15857E+00  0.32111E+01  0.00000E+00
  0.34077E-01  0.31996E+01  0.00000E+00
  0.23909E+00  0.31872E+01  0.00000E+00
  0.43173E+00  0.31757E+01  0.00000E+00
  0.58878E+00  0.31662E+01  0.00000E+00
  0.69129E+00  0.31600E+01  0.00000E+00
  0.72689E+00  0.31579E+01  0.00000E+00
 -0.44874E+00  0.33512E+01  0.00000E+00
 -0.41270E+00  0.33490E+01  0.00000E+00
 -0.30892E+00  0.33426E+01  0.00000E+00
 -0.14993E+00  0.33327E+01  0.00000E+00
  0.45102E-01  0.33207E+01  0.00000E+00
  0.25265E+00  0.33079E+01  0.00000E+00
  0.44769E+00  0.32958E+01  0.00000E+00
  0.60668E+00  0.32860E+01  0.00000E+00
  0.71045E+00  0.32796E+01  0.00000E+00
  0.74649E+00  0.32773E+01  0.00000E+00
 -0.44111E+00  0.35386E+01  0.00000E+00
 -0.40439E+00  0.35363E+01  0.00000E+00
 -0.29867E+00  0.35295E+01  0.00000E+00
 -0.13670E+00  0.35190E+01  0.00000E+00
  0.61993E-01  0.35063E+01  0.00000E+00
  0.27343E+00  0.34927E+01  0.00000E+00
  0.47212E+00  0.34799E+01  0.00000E+00
  0.63410E+00  0.34695E+01  0.00000E+00
  0.73982E+00  0.34627E+01  0.00000E+00
  0.77653E+00  0.34603E+01  0.00000E+00
 -0.43175E+00  0.37685E+01  0.00000E+00
 -0.39420E+00  0.37660E+01  0.00000E+00
 -0.28609E+00  0.37587E+01  0.00000E+00
 -0.12046E+00  0.37476E+01  0.00000E+00
  0.82712E-01  0.37339E+01  0.00000E+00
  0.29893E+00  0.37194E+01  0.00000E+00
  0.50210E+00  0.37057E+01  0.00000E+00
  0.66773E+00  0.36945E+01  0.00000E+00
  0.77584E+00  0.36873E+01  0.00000E+00
  0.81338E+00  0.36847E+01  0.00000E+00
 -0.42178E+00  0.40131E+01  0.00000E+00
 -0.38335E+00  0.40104E+01  0.00000E+00
 -0.27271E+00  0.40027E+01  0.00000E+00
 -0.10319E+00  0.39908E+01  0.00000E+00
  0.10476E+00  0.39761E+01  0.00000E+00
  0.32606E+00  0.39606E+01  0.00000E+00
  0.53400E+00  0.39460E+01  0.00000E+00
  0.70352E+00  0.39341E+01  0.00000E+00
  0.81417E+00  0.39263E+01  0.00000E+00
  0.85260E+00  0.39236E+01  0.00000E+00
 -0.41242E+00  0.42430E+01  0.00000E+00
 -0.37316E+00  0.42402E+01  0.00000E+00
 -0.26013E+00  0.42319E+01  0.00000E+00
 -0.86952E-01  0.42193E+01  0.00000E+00
  0.12548E+00  0.42038E+01  0.00000E+00
  0.35155E+00  0.41873E+01  0.00000E+00
  0.56398E+00  0.41718E+01  0.00000E+00
  0.73716E+00  0.41592E+01  0.00000E+00
  0.85019E+00  0.41509E+01  0.00000E+00
  0.88945E+00  0.41480E+01  0.00000E+00
 -0.40479E+00  0.44304E+01  0.00000E+00
 -0.36486E+00  0.44274E+01  0.00000E+00
 -0.24988E+00  0.44188E+01  0.00000E+00
 -0.73718E-01  0.44056E+01  0.00000E+00
  0.14237E+00  0.43894E+01  0.00000E+00
  0.37233E+00  0.43721E+01  0.00000E+00
  0.58842E+00  0.43559E+01  0.00000E+00
  0.76458E+00  0.43426E+01  0.00000E+00
  0.87956E+00  0.43340E+01  0.00000E+00
  0.91949E+00  0.43310E+01  0.00000E+00
 -0.39981E+00  0.45528E+01  0.00000E+00
 -0.35943E+00  0.45497E+01  0.00000E+00
 -0.24318E+00  0.45408E+01  0.00000E+00
 -0.65080E-01  0.45272E+01  0.00000E+00
  0.15340E+00  0.45105E+01  0.00000E+00
  0.38589E+00  0.44927E+01  0.00000E+00
  0.60437E+00  0.44760E+01  0.00000E+00
  0.78247E+00  0.44624E+01  0.00000E+00
  0.89872E+00  0.44535E+01  0.00000E+00
  0.93910E+00  0.44504E+01  0.00000E+00
 -0.39808E+00  0.45952E+01  0.00000E+00
 -0.35755E+00  0.45921E+01  0.00000E+00
 -0.24086E+00  0.45831E+01  0.00000E+00
 -0.62080E-01  0.45694E+01  0.00000E+00
  0.15723E+00  0.45525E+01  0.00000E+00
  0.39060E+00  0.45346E+01  0.00000E+00
  0.60991E+00  0.45177E+01  0.00000E+00
  0.78869E+00  0.45040E+01  0.00000E+00
  0.90538E+00  0.44950E+01  0.00000E+00
  0.94590E+00  0.44919E+01  0.00000E+00
 ZONE I=          10 ,J=          10 , F=POINT
  0.85739E+01  0.36060E+01  0.00000E+00
  0.86048E+01  0.36058E+01  0.00000E+00
  0.86939E+01  0.36053E+01  0.00000E+00
  0.88303E+01  0.36045E+01  0.00000E+00
  0.89977E+01  0.36035E+01  0.00000E+00
  0.91758E+01  0.36024E+01  0.00000E+00
  0.93432E+01  0.36014E+01  0.00000E+00
  0.94796E+01  0.36006E+01  0.00000E+00
  0.95687E+01  0.36001E+01  0.00000E+00
  0.95996E+01  0.35999E+01  0.00000E+00
  0.85667E+01  0.36372E+01  0.00000E+00
  0.85979E+01  0.36372E+01  0.00000E+00
  0.86877E+01  0.36371E+01  0.00000E+00
  0.88252E+01  0.36370E+01  0.00000E+00
  0.89939E+01  0.36369E+01  0.00000E+00
  0.91735E+01  0.36367E+01  0.00000E+00
  0.93422E+01  0.36366E+01  0.00000E+00
  0.94797E+01  0.36365E+01  0.00000E+00
  0.95695E+01  0.36364E+01  0.00000E+00
  0.96006E+01  0.36364E+01  0.00000E+00
  0.85462E+01  0.37272E+01  0.00000E+00
  0.85780E+01  0.37276E+01  0.00000E+00
  0.86699E+01  0.37289E+01  0.00000E+00
  0.88105E+01  0.37308E+01  0.00000E+00
  0.89831E+01  0.37331E+01  0.00000E+00
  0.91667E+01  0.37356E+01  0.00000E+00
  0.93393E+01  0.37379E+01  0.00000E+00
  0.94800E+01  0.37398E+01  0.00000E+00
  0.95718E+01  0.37410E+01  0.00000E+00
  0.96037E+01  0.37414E+01  0.00000E+00
  0.85146E+01  0.38651E+01  0.00000E+00
  0.85476E+01  0.38662E+01  0.00000E+00
  0.86426E+01  0.38694E+01  0.00000E+00
  0.87881E+01  0.38744E+01  0.00000E+00
  0.89665E+01  0.38805E+01  0.00000E+00
  0.91565E+01  0.38869E+01  0.00000E+00
  0.93349E+01  0.38930E+01  0.00000E+00
  0.94804E+01  0.38980E+01  0.00000E+00
  0.95754E+01  0.39012E+01  0.00000E+00
  0.96084E+01  0.39024E+01  0.00000E+00
  0.84760E+01  0.40342E+01  0.00000E+00
  0.85103E+01  0.40361E+01  0.00000E+00
  0.86091E+01  0.40418E+01  0.00000E+00
  0.87605E+01  0.40506E+01  0.00000E+00
  0.89462E+01  0.40613E+01  0.00000E+00
  0.91439E+01  0.40727E+01  0.00000E+00
  0.93296E+01  0.40834E+01  0.00000E+00
  0.94810E+01  0.40921E+01  0.00000E+00
  0.95798E+01  0.40978E+01  0.00000E+00
  0.96141E+01  0.40998E+01  0.00000E+00
  0.84348E+01  0.42141E+01  0.00000E+00
  0.84706E+01  0.42170E+01  0.00000E+00
  0.85735E+01  0.42253E+01  0.00000E+00
  0.87312E+01  0.42381E+01  0.00000E+00
  0.89246E+01  0.42537E+01  0.00000E+00
  0.91304E+01  0.42703E+01  0.00000E+00
  0.93239E+01  0.42859E+01  0.00000E+00
  0.94815E+01  0.42987E+01  0.00000E+00
  0.95845E+01  0.43070E+01  0.00000E+00
  0.96202E+01  0.43099E+01  0.00000E+00
  0.83962E+01  0.43832E+01  0.00000E+00
  0.84333E+01  0.43870E+01  0.00000E+00
  0.85400E+01  0.43977E+01  0.00000E+00
  0.87036E+01  0.44142E+01  0.00000E+00
  0.89043E+01  0.44345E+01  0.00000E+00
  0.91178E+01  0.44560E+01  0.00000E+00
  0.93185E+01  0.44763E+01  0.00000E+00
  0.94821E+01  0.44928E+01  0.00000E+00
  0.95889E+01  0.45035E+01  0.00000E+00
  0.96259E+01  0.45073E+01  0.00000E+00
  0.83647E+01  0.45211E+01  0.00000E+00
  0.84028E+01  0.45255E+01  0.00000E+00
  0.85128E+01  0.45383E+01  0.00000E+00
  0.86812E+01  0.45579E+01  0.00000E+00
  0.88877E+01  0.45819E+01  0.00000E+00
  0.91076E+01  0.46074E+01  0.00000E+00
  0.93141E+01  0.46314E+01  0.00000E+00
  0.94825E+01  0.46510E+01  0.00000E+00
  0.95924E+01  0.46638E+01  0.00000E+00
  0.96306E+01  0.46682E+01  0.00000E+00
  0.83441E+01  0.46111E+01  0.00000E+00
  0.83830E+01  0.46160E+01  0.00000E+00
  0.84949E+01  0.46300E+01  0.00000E+00
  0.86665E+01  0.46516E+01  0.00000E+00
  0.88769E+01  0.46781E+01  0.00000E+00
  0.91008E+01  0.47062E+01  0.00000E+00
  0.93113E+01  0.47327E+01  0.00000E+00
  0.94828E+01  0.47543E+01  0.00000E+00
  0.95948E+01  0.47683E+01  0.00000E+00
  0.96337E+01  0.47732E+01  0.00000E+00
  0.83369E+01  0.46423E+01  0.00000E+00
  0.83761E+01  0.46474E+01  0.00000E+00
  0.84888E+01  0.46619E+01  0.00000E+00
  0.86614E+01  0.46842E+01  0.00000E+00
  0.88732E+01  0.47115E+01  0.00000E+00
  0.90985E+01  0.47405E+01  0.00000E+00
  0.93103E+01  0.47679E+01  0.00000E+00
  0.94829E+01  0.47901E+01  0.00000E+00
  0.95956E+01  0.48047E+01  0.00000E+00
  0.96347E+01  0.48097E+01  0.00000E+00
 ZONE I=          10 ,J=          10 , F=POINT
  0.71142E+01  0.50220E+01  0.00000E+00
  0.71510E+01  0.50106E+01  0.00000E+00
  0.72572E+01  0.49776E+01  0.00000E+00
  0.74199E+01  0.49271E+01  0.00000E+00
  0.76194E+01  0.48651E+01  0.00000E+00
  0.78317E+01  0.47992E+01  0.00000E+00
  0.80313E+01  0.47372E+01  0.00000E+00
  0.81939E+01  0.46867E+01  0.00000E+00
  0.83001E+01  0.46538E+01  0.00000E+00
  0.83369E+01  0.46423E+01  0.00000E+00
  0.71317E+01  0.50456E+01  0.00000E+00
  0.71684E+01  0.50345E+01  0.00000E+00
  0.72740E+01  0.50026E+01  0.00000E+00
  0.74358E+01  0.49537E+01  0.00000E+00
  0.76343E+01  0.48938E+01  0.00000E+00
  0.78455E+01  0.48300E+01  0.00000E+00
  0.80439E+01  0.47700E+01  0.00000E+00
  0.82057E+01  0.47212E+01  0.00000E+00
  0.83113E+01  0.46893E+01  0.00000E+00
  0.83480E+01  0.46782E+01  0.00000E+00
  0.71823E+01  0.51133E+01  0.00000E+00
  0.72184E+01  0.51033E+01  0.00000E+00
  0.73224E+01  0.50745E+01  0.00000E+00
  0.74817E+01  0.50304E+01  0.00000E+00
  0.76771E+01  0.49762E+01  0.00000E+00
  0.78850E+01  0.49186E+01  0.00000E+00
  0.80805E+01  0.48645E+01  0.00000E+00
  0.82398E+01  0.48204E+01  0.00000E+00
  0.83438E+01  0.47915E+01  0.00000E+00
  0.83799E+01  0.47815E+01  0.00000E+00
  0.72597E+01  0.52172E+01  0.00000E+00
  0.72950E+01  0.52088E+01  0.00000E+00
  0.73965E+01  0.51847E+01  0.00000E+00
  0.75520E+01  0.51478E+01  0.00000E+00
  0.77427E+01  0.51026E+01  0.00000E+00
  0.79457E+01  0.50544E+01  0.00000E+00
  0.81364E+01  0.50092E+01  0.00000E+00
  0.82919E+01  0.49723E+01  0.00000E+00
  0.83934E+01  0.49482E+01  0.00000E+00
  0.84287E+01  0.49399E+01  0.00000E+00
  0.73547E+01  0.53445E+01  0.00000E+00
  0.73889E+01  0.53382E+01  0.00000E+00
  0.74874E+01  0.53199E+01  0.00000E+00
  0.76382E+01  0.52919E+01  0.00000E+00
  0.78232E+01  0.52576E+01  0.00000E+00
  0.80201E+01  0.52210E+01  0.00000E+00
  0.82051E+01  0.51867E+01  0.00000E+00
  0.83559E+01  0.51587E+01  0.00000E+00
  0.84543E+01  0.51404E+01  0.00000E+00
  0.84885E+01  0.51341E+01  0.00000E+00
  0.74558E+01  0.54801E+01  0.00000E+00
  0.74889E+01  0.54759E+01  0.00000E+00
  0.75841E+01  0.54638E+01  0.00000E+00
  0.77299E+01  0.54452E+01  0.00000E+00
  0.79088E+01  0.54225E+01  0.00000E+00
  0.80992E+01  0.53983E+01  0.00000E+00
  0.82781E+01  0.53756E+01  0.00000E+00
  0.84240E+01  0.53570E+01  0.00000E+00
  0.85192E+01  0.53449E+01  0.00000E+00
  0.85522E+01  0.53407E+01  0.00000E+00
  0.75508E+01  0.56074E+01  0.00000E+00
  0.75828E+01  0.56052E+01  0.00000E+00
  0.76750E+01  0.55989E+01  0.00000E+00
  0.78161E+01  0.55893E+01  0.00000E+00
  0.79893E+01  0.55775E+01  0.00000E+00
  0.81736E+01  0.55649E+01  0.00000E+00
  0.83468E+01  0.55531E+01  0.00000E+00
  0.84880E+01  0.55434E+01  0.00000E+00
  0.85801E+01  0.55371E+01  0.00000E+00
  0.86121E+01  0.55350E+01  0.00000E+00
  0.76283E+01  0.57112E+01  0.00000E+00
  0.76594E+01  0.57107E+01  0.00000E+00
  0.77491E+01  0.57091E+01  0.00000E+00
  0.78864E+01  0.57068E+01  0.00000E+00
  0.80549E+01  0.57038E+01  0.00000E+00
  0.82342E+01  0.57007E+01  0.00000E+00
  0.84027E+01  0.56978E+01  0.00000E+00
  0.85401E+01  0.56954E+01  0.00000E+00
  0.86298E+01  0.56938E+01  0.00000E+00
  0.86609E+01  0.56933E+01  0.00000E+00
  0.76788E+01  0.57790E+01  0.00000E+00
  0.77094E+01  0.57795E+01  0.00000E+00
  0.77974E+01  0.57811E+01  0.00000E+00
  0.79323E+01  0.57834E+01  0.00000E+00
  0.80978E+01  0.57863E+01  0.00000E+00
  0.82738E+01  0.57893E+01  0.00000E+00
  0.84393E+01  0.57922E+01  0.00000E+00
  0.85741E+01  0.57946E+01  0.00000E+00
  0.86622E+01  0.57961E+01  0.00000E+00
  0.86928E+01  0.57966E+01  0.00000E+00
  0.76964E+01  0.58025E+01  0.00000E+00
  0.77268E+01  0.58035E+01  0.00000E+00
  0.78142E+01  0.58061E+01  0.00000E+00
  0.79482E+01  0.58100E+01  0.00000E+00
  0.81126E+01  0.58149E+01  0.00000E+00
  0.82876E+01  0.58201E+01  0.00000E+00
  0.84520E+01  0.58250E+01  0.00000E+00
  0.85860E+01  0.58290E+01  0.00000E+00
  0.86734E+01  0.58316E+01  0.00000E+00
  0.87038E+01  0.58325E+01  0.00000E+00
 ZONE I=          10 ,J=          10 , F=POINT
  0.83369E+01  0.46423E+01  0.00000E+00
  0.83761E+01  0.46474E+01  0.00000E+00
  0.84888E+01  0.46619E+01  0.00000E+00
  0.86614E+01  0.46842E+01  0.00000E+00
  0.88732E+01  0.47115E+01  0.00000E+00
  0.90985E+01  0.47405E+01  0.00000E+00
  0.93103E+01  0.47679E+01  0.00000E+00
  0.94829E+01  0.47901E+01  0.00000E+00
  0.95956E+01  0.48047E+01  0.00000E+00
  0.96347E+01  0.48097E+01  0.00000E+00
  0.83480E+01  0.46782E+01  0.00000E+00
  0.83868E+01  0.46830E+01  0.00000E+00
  0.84984E+01  0.46969E+01  0.00000E+00
  0.86694E+01  0.47181E+01  0.00000E+00
  0.88791E+01  0.47441E+01  0.00000E+00
  0.91023E+01  0.47718E+01  0.00000E+00
  0.93121E+01  0.47979E+01  0.00000E+00
  0.94831E+01  0.48191E+01  0.00000E+00
  0.95947E+01  0.48329E+01  0.00000E+00
  0.96334E+01  0.48377E+01  0.00000E+00
  0.83799E+01  0.47815E+01  0.00000E+00
  0.84176E+01  0.47857E+01  0.00000E+00
  0.85261E+01  0.47976E+01  0.00000E+00
  0.86923E+01  0.48158E+01  0.00000E+00
  0.88963E+01  0.48381E+01  0.00000E+00
  0.91133E+01  0.48619E+01  0.00000E+00
  0.93173E+01  0.48842E+01  0.00000E+00
  0.94835E+01  0.49024E+01  0.00000E+00
  0.95920E+01  0.49143E+01  0.00000E+00
  0.96297E+01  0.49184E+01  0.00000E+00
  0.84287E+01  0.49399E+01  0.00000E+00
  0.84647E+01  0.49429E+01  0.00000E+00
  0.85685E+01  0.49518E+01  0.00000E+00
  0.87275E+01  0.49654E+01  0.00000E+00
  0.89226E+01  0.49821E+01  0.00000E+00
  0.91301E+01  0.49998E+01  0.00000E+00
  0.93252E+01  0.50165E+01  0.00000E+00
  0.94842E+01  0.50301E+01  0.00000E+00
  0.95880E+01  0.50389E+01  0.00000E+00
  0.96240E+01  0.50420E+01  0.00000E+00
  0.84885E+01  0.51341E+01  0.00000E+00
  0.85226E+01  0.51359E+01  0.00000E+00
  0.86205E+01  0.51410E+01  0.00000E+00
  0.87707E+01  0.51490E+01  0.00000E+00
  0.89548E+01  0.51587E+01  0.00000E+00
  0.91508E+01  0.51690E+01  0.00000E+00
  0.93349E+01  0.51787E+01  0.00000E+00
  0.94850E+01  0.51867E+01  0.00000E+00
  0.95830E+01  0.51918E+01  0.00000E+00
  0.96170E+01  0.51936E+01  0.00000E+00
  0.85522E+01  0.53407E+01  0.00000E+00
  0.85841E+01  0.53412E+01  0.00000E+00
  0.86759E+01  0.53424E+01  0.00000E+00
  0.88166E+01  0.53443E+01  0.00000E+00
  0.89891E+01  0.53466E+01  0.00000E+00
  0.91727E+01  0.53491E+01  0.00000E+00
  0.93453E+01  0.53514E+01  0.00000E+00
  0.94859E+01  0.53533E+01  0.00000E+00
  0.95777E+01  0.53546E+01  0.00000E+00
  0.96096E+01  0.53550E+01  0.00000E+00
  0.86121E+01  0.55350E+01  0.00000E+00
  0.86420E+01  0.55341E+01  0.00000E+00
  0.87280E+01  0.55316E+01  0.00000E+00
  0.88597E+01  0.55279E+01  0.00000E+00
  0.90214E+01  0.55232E+01  0.00000E+00
  0.91934E+01  0.55183E+01  0.00000E+00
  0.93550E+01  0.55137E+01  0.00000E+00
  0.94867E+01  0.55099E+01  0.00000E+00
  0.95727E+01  0.55075E+01  0.00000E+00
  0.96026E+01  0.55066E+01  0.00000E+00
  0.86609E+01  0.56933E+01  0.00000E+00
  0.86891E+01  0.56914E+01  0.00000E+00
  0.87704E+01  0.56859E+01  0.00000E+00
  0.88949E+01  0.56775E+01  0.00000E+00
  0.90476E+01  0.56672E+01  0.00000E+00
  0.92102E+01  0.56563E+01  0.00000E+00
  0.93629E+01  0.56460E+01  0.00000E+00
  0.94874E+01  0.56376E+01  0.00000E+00
  0.95687E+01  0.56321E+01  0.00000E+00
  0.95969E+01  0.56302E+01  0.00000E+00
  0.86928E+01  0.57966E+01  0.00000E+00
  0.87199E+01  0.57940E+01  0.00000E+00
  0.87981E+01  0.57866E+01  0.00000E+00
  0.89179E+01  0.57752E+01  0.00000E+00
  0.90648E+01  0.57612E+01  0.00000E+00
  0.92212E+01  0.57463E+01  0.00000E+00
  0.93681E+01  0.57323E+01  0.00000E+00
  0.94879E+01  0.57209E+01  0.00000E+00
  0.95660E+01  0.57135E+01  0.00000E+00
  0.95932E+01  0.57109E+01  0.00000E+00
  0.87038E+01  0.58325E+01  0.00000E+00
  0.87306E+01  0.58297E+01  0.00000E+00
  0.88077E+01  0.58216E+01  0.00000E+00
  0.89258E+01  0.58091E+01  0.00000E+00
  0.90708E+01  0.57938E+01  0.00000E+00
  0.92250E+01  0.57776E+01  0.00000E+00
  0.93699E+01  0.57623E+01  0.00000E+00
  0.94880E+01  0.57499E+01  0.00000E+00
  0.95651E+01  0.57417E+01  0.00000E+00
  0.95919E+01  0.57389E+01  0.00000E+00
 ZONE I=          10 ,J=          10 , F=POINT
 -0.17865E+01 -0.94895E-01  0.00000E+00
 -0.17706E+01 -0.97918E-01  0.00000E+00
 -0.17248E+01 -0.10662E+00  0.00000E+00
 -0.16546E+01 -0.11995E+00  0.00000E+00
 -0.15685E+01 -0.13631E+00  0.00000E+00
 -0.14768E+01 -0.15371E+00  0.00000E+00
 -0.13907E+01 -0.17006E+00  0.00000E+00
 -0.13205E+01 -0.18340E+00  0.00000E+00
 -0.12747E+01 -0.19210E+00  0.00000E+00
 -0.12588E+01 -0.19512E+00  0.00000E+00
 -0.17901E+01 -0.81530E-01  0.00000E+00
 -0.17740E+01 -0.84366E-01  0.00000E+00
 -0.17278E+01 -0.92532E-01  0.00000E+00
 -0.16570E+01 -0.10504E+00  0.00000E+00
 -0.15702E+01 -0.12039E+00  0.00000E+00
 -0.14778E+01 -0.13672E+00  0.00000E+00
 -0.13909E+01 -0.15207E+00  0.00000E+00
 -0.13201E+01 -0.16458E+00  0.00000E+00
 -0.12739E+01 -0.17275E+00  0.00000E+00
 -0.12578E+01 -0.17558E+00  0.00000E+00
 -0.18004E+01 -0.43047E-01  0.00000E+00
 -0.17840E+01 -0.45347E-01  0.00000E+00
 -0.17366E+01 -0.51970E-01  0.00000E+00
 -0.16641E+01 -0.62117E-01  0.00000E+00
 -0.15751E+01 -0.74565E-01  0.00000E+00
 -0.14804E+01 -0.87811E-01  0.00000E+00
 -0.13915E+01 -0.10026E+00  0.00000E+00
 -0.13189E+01 -0.11041E+00  0.00000E+00
 -0.12716E+01 -0.11703E+00  0.00000E+00
 -0.12552E+01 -0.11933E+00  0.00000E+00
 -0.18162E+01  0.15913E-01  0.00000E+00
 -0.17992E+01  0.14434E-01  0.00000E+00
 -0.17501E+01  0.10175E-01  0.00000E+00
 -0.16749E+01  0.36496E-02  0.00000E+00
 -0.15827E+01 -0.43547E-02  0.00000E+00
 -0.14846E+01 -0.12873E-01  0.00000E+00
 -0.13923E+01 -0.20877E-01  0.00000E+00
 -0.13172E+01 -0.27402E-01  0.00000E+00
 -0.12681E+01 -0.31661E-01  0.00000E+00